pretty_formula,material_id,band_gap
FeSNO,mp-622785,1.5851000000000002
Li4V2Si(PO6)2,mp-770190,1.9445999999999997
Mn2O7,mp-28338,1.8058000000000003
Na3Zn2(WO4)3,mp-1210410,1.8465
USiPbO7,mp-728246,1.8107999999999995
FeBiO3,mp-551451,1.6259
MgV2(OF3)2,mp-2217726,1.9736
KUNbO6,mp-554887,1.9426
LiErSe2,mp-35205,1.6045000000000005
Na3InSi3Sn3(SO8)3,mp-2716373,1.8475
VH7(CO2)4,mp-698158,1.8948
Lu2PbSe4,mp-1192914,1.8021
CoH2SeO4,mp-505469,1.6176
V6O5F19,mp-850981,1.7243
UCdO4,mp-14000,1.9057
ZnS,mp-582680,1.9845
Mg30NiSnO32,mp-1037190,1.8057
LiNbFeO4,mp-1306620,1.907
MgAl6O10,mp-532405,1.9142
K3Np(H3O4)2,mp-1194761,1.543
LiMo(PO3)5,mp-695791,1.6246
Hg3(TeCl)2,mp-27852,1.9134
MgCo2(HO2)2,mp-2217537,1.5625
CaFe4(PO4)4,mp-1234291,1.6928
Na2Mg2Fe2Se3(SO8)3,mp-1221456,1.8223
Li6V2O5F2,mp-759582,1.9905000000000004
K2NiPb(NO2)6,mp-22139,1.7504
Ti3Fe(BiO3)5,mp-1217245,1.6518000000000006
FePH5CO8,mp-1182614,1.7522
NdCrO3,mp-19062,1.904
SF4,mp-33107,1.5231
Fe2OF3,mp-1280834,1.6619
Na15Ta5Zn7Si9(SO8)9,mp-2713491,1.7800999999999998
Li3CrPCO7,mp-1177693,1.9516
La2MgFe2(TeO6)2,mp-2230409,1.5511000000000008
Ba3Fe2WO9,mp-1228376,1.5158999999999998
Ba2Fe6O11,mp-652683,1.6653
Cs3Mo2N5,mp-1247239,1.5542
Na2NiO2,mp-752558,1.809
SrCaNbFeO6,mp-1519250,1.7541000000000002
MgBiWO5,mp-1044356,1.6053000000000002
U2CoSi2(H7O9)2,mp-1208188,1.6392
Cr3(PO4)2,mp-1192907,1.9389
Li2Mn(PO3)5,mp-705355,1.5914
Li5MnO3F,mp-759909,1.8802
InHO2,mp-504535,1.7764000000000002
Fe2O3,mp-715276,1.5103
Zn3Ge3(BiO6)2,mp-1332100,1.7341000000000002
MgCr2(Fe2O5)2,mp-2229112,1.513
MgV4O7F5,mp-2229129,1.5008
CeZrO4,mp-1226488,1.9109
LiFe2(BO3)2,mp-764465,1.6068999999999998
Ca2AlVO5,mp-1251643,1.6103999999999994
Na4SnO3,mp-28261,1.8842
UCdO4,mp-545598,1.9644
Pr9Al5Se21,mp-1220064,1.7883999999999998
BaMgMnF7,mp-1047862,1.66
UV2PbO9,mp-561210,1.9374
CsPS3,mp-504838,1.9062
Na5NiO4,mp-21996,1.8963
LiMg14CrO16,mp-1035434,1.6420999999999992
Cs2CeO3,mp-1178467,1.9287
MgBiMoO5,mp-1042627,1.5255999999999998
SrLa4TiCr4O15,mp-694977,1.6639999999999997
Zr2N2O,mp-755368,1.5175
SrCr9Ga3O19,mp-1218679,1.9673
Hf2N2O,mp-775787,1.6197999999999997
CoH14C2(NO)12,mp-1200629,1.6765
AlTlSe2,mp-863762,1.7889999999999997
P3Se4I,mp-28393,1.6437000000000002
V2OF5,mp-754609,1.5188
Rb2Ti(TeO4)3,mp-1540553,1.6461
Na5FeO4,mp-760318,1.7893
LaFe4(BiO4)3,mp-1222983,1.5881999999999996
WSeS,mp-1216174,1.5081000000000002
GaHO2,mp-625621,1.9112000000000005
V2CoO6,mp-1178823,1.9116
Ba3Al3N5,mp-1247525,1.7764999999999995
Mg3SbN,mp-1080847,1.6233999999999993
Na6Ta3In5Si6(SO8)6,mp-2716329,1.9993
Cr5(PO4)4,mp-504336,1.6227999999999998
Li6V3P8O29,mp-1176915,1.5658
SmBiS3,mp-1219113,1.6507999999999994
Y2TeS2,mp-1216058,1.8652
Na3YSi2GeSO12,mp-2714398,1.8693
K2TlRhF6,mp-1111368,1.9609
RbMgNbO3,mp-2227220,1.5879000000000003
CrHg3(PbO4)2,mp-559462,1.5460000000000005
LiB,mp-1001831,1.7264999999999997
Li9Mn2Co5O16,mp-1175387,1.5405000000000002
ZnFe8Co3O16,mp-1215842,1.5578000000000003
Al2Zn2S5,mp-1096793,1.5385999999999995
LiAg(CO2)2,mp-985575,1.6986999999999997
Mo3S7Cl4,mp-640341,1.5264000000000002
Li9Mn2Co5O16,mp-1175566,1.5863
Li6MnCoP2(CO7)2,mp-757178,1.6453000000000002
Zn2FeWO6,mp-1047414,1.992
Ca4CrFe3O10,mp-1227753,1.7498000000000005
Na2MgGe2(SbO5)2,mp-2229864,1.7374999999999994
Fe4P3(HO5)3,mp-24470,1.6645
Li3Fe8(BO3)8,mp-760324,1.5066000000000002
B,mp-1193675,1.5133
Dy2MgMo2(ClO4)2,mp-2228645,1.7502
S3(NO)2,mp-3496,1.6974
V3H4NO8,mp-768097,1.8589
Na3MoCl6,mp-1106352,1.7232
Nb2Cd2O7,mp-5472,1.8839
V(Bi5O8)5,mp-767265,1.8282
Nb3AgO8,mp-16837,1.5603000000000002
Li2SiSnS4,mp-1021497,1.9189000000000005
Li5MnF8,mp-756629,1.7564
LiVFe(P2O7)2,mp-759529,1.509
Ti7Sn3O20,mp-761118,1.5248999999999997
Co(PO2)2,mp-1213753,1.6574
S2Xe(O3F)2,mp-1194972,1.9408
Hg3TeBr4,mp-29097,1.9445
SnI2,mp-27194,1.7061000000000002
Tm2TeS2,mp-1216554,1.7889999999999997
CsV2I3O13,mp-572728,1.5128
K2RuBr5NO,mp-560144,1.6301
Cs2NaCr(CN)6,mp-17165,1.8425
BaBiClO2,mp-1227965,1.5244
CoSeO4,mp-504678,1.6888999999999998
DyCu(MoO4)2,mp-15481,1.5262
CdSeO4,mp-756703,1.5661999999999998
Ba8Ti3Nb4O24,mp-1228557,1.9693
Rb4Mg(Se2O7)2,mp-1233109,1.5472
Na10Zn3Ge5(PO4)12,mp-2716343,1.5790000000000002
LiMnF5,mp-767597,1.5698
Na8Ca2Nb2Si5SO24,mp-2716171,1.8603
Na2Fe3(PO4)3,mp-1195335,1.6381
KLiNiO2,mp-774921,1.791
RbNdSe2,mp-10779,1.8958
TiS2,mp-1042098,1.6382
BaLa5TiCr5O18,mp-694922,1.9947
Li3TiFe3O8,mp-755163,1.8386
Sm3SiS6Cl,mp-1219229,1.8717
LaMoN3,mp-989631,1.8284
Na4TeO5,mp-15391,1.9815
Fe4As10PbO22,mp-735662,1.7469
Cs2KAsI6,mp-1112793,1.885
LiVFeP2(HO5)2,mp-760297,1.5067
SrLiTi4CrO11,mp-1218260,1.8287000000000004
BaSrPrVO6,mp-1521162,1.8192
ReSeCl,mp-676712,1.5368
Fe3P2H3O11,mp-540712,1.6678
LiInSe2,mp-20310,1.6234
Sr2VP2O9,mp-1218530,1.5748000000000002
ZnSi(AgS2)2,mp-1189914,1.6859000000000006
Li2CrSiO4,mp-762870,1.5289
Al3BC3,mp-1214836,1.7548000000000004
Sr2IN,mp-569677,1.7923
RbCr4BiO14,mp-642938,1.9859
Si(PbSe2)2,mp-27532,1.8131000000000004
Rb2Nd2Mg(WO4)4,mp-1233448,1.9805
Cs2O,mp-755573,1.6506000000000003
Sr12Al14O33,mp-1094063,1.59
CeZr2O6,mp-1226467,1.9108
MgFe4(HO2)4,mp-2229168,1.7968000000000002
Ta2Tl3Cu3S8,mp-554994,1.8183
Ba2NbFeO6,mp-1022733,1.6905999999999994
Ta10Zn2Si9(SO8)9,mp-2713771,1.5901
S2NO9,mp-1179633,1.5747
Na10Ti4Al4Si7S5O48,mp-2715846,1.854
Sr9Mn5Co2O21,mp-1197208,1.7903999999999995
Mg2Sn3O8,mp-1042442,1.9335000000000004
Ba2BiWO6,mp-1520885,1.9603999999999997
GdSClO4,mp-558122,1.6219
DyFeGe2O7,mp-622558,1.8318
CrHg3(SO2)2,mp-560733,1.7080000000000002
Ba(InSe2)2,mp-21766,1.687
H4N2O3,mp-1181430,1.6042
SrCrO4,mp-1179431,1.6033
K2LiSbI6,mp-1110937,1.7108
Sb2Te2O9,mp-1179610,1.7980999999999998
CoH8Se2(ClO4)2,mp-1204801,1.8892
AsSe3(BrF2)3,mp-1229037,1.6873
Sr9Zn4(CuO7)2,mp-555609,1.7851
MgFe4(OF)4,mp-2218331,1.5292
H8PtO6,mp-625113,1.5297
Sr8MgP4(IO4)4,mp-1233937,1.6881
LiMnF4,mp-755191,1.5192
NbCoO4,mp-31518,1.5819
NaSr4(BN2)3,mp-10811,1.9666
La4Ti5(TeO8)3,mp-1223346,1.5890000000000004
SrV2(PO5)2,mp-723593,1.7973000000000003
LaNb3Si3(SO8)3,mp-2713910,1.6947
InSb3Pb4O13,mp-1223746,1.5594
Na14Mg2Ti6Si9(SO16)3,mp-2714646,1.7553
NaTi3NbSi3(SO8)3,mp-2713767,1.7614
NaMgNiIO6,mp-2227074,1.6703
GaCuI4,mp-29403,1.6967
Fe2PCO7,mp-1213220,1.8151
Ti2Co(PO5)2,mp-562797,1.9118
ThCN,mp-30521,1.5224000000000002
CsReF8,mp-29842,1.7181000000000002
ReSbO6,mp-1445115,1.6674
Li(BH)4,mp-1211283,1.7113
Na2NbZn(PO4)3,mp-2713710,1.9984
CsNa3U4(MoO10)2,mp-1194022,1.7917999999999998
K10Ge18WO4,mp-1197968,1.7100000000000002
Mg2NiH4,mp-1185821,1.5088000000000004
CS5N5O3F,mp-558959,1.8838
PBr5,mp-22874,1.6183
Ba3SrLu2(BiO6)2,mp-1228053,1.5910000000000002
C3IN,mp-1079290,1.9388
KTiCu3Se4,mp-1180688,1.7001
Dy2MgSe4,mp-1232066,1.5888
Zr(CuCl3)2,mp-1100809,1.6303999999999998
H8Pt(NCl3)2,mp-24227,1.7803
YBiO3,mp-1369528,1.6856
BaO,mp-1245276,1.7647999999999997
MgFe4(OF)4,mp-2228208,1.6190000000000002
Cs3LaO3,mp-755198,1.7439
Co2As2O5,mp-705094,1.9352
Si2AgN3,mp-1247312,1.8527999999999996
Li2Cr3(CoO6)2,mp-772115,1.789
K2CS3O,mp-1193648,1.7940999999999998
YNb3(PO4)6,mp-2713827,1.9411
GaBiO3,mp-558285,1.8794000000000004
Ba2NdVO6,mp-1520957,1.6267
LiVSiO4,mp-753374,1.9627000000000003
FeP3O11,mp-1181396,1.5453
HgSbOF8,mp-1191261,1.9133
MnB2H17N3,mp-1195307,1.9165
Li4V5O9F,mp-758679,1.7204000000000002
Sr2TiO4,mp-5532,1.9142
Sb2Te3H2C(NCl9)2,mp-1201099,1.71
Li3BiS3,mp-753444,1.9787
TiNiO3,mp-690546,1.8142
Li2Mn3NiO8,mp-1177919,1.6261
Rb2CrF6,mp-2041196,1.8764
BaCaDyVO6,mp-1519032,1.6048
AgIO3,mp-1202188,1.8069
LiZn(HCl)3,mp-1211644,1.6197
Li2CuAg,mp-1096285,1.8349
ZnH8C2I2(N2O)2,mp-697957,1.8638
K3Cr(CN)6,mp-645346,1.9487
SrC2,mp-2630,1.6917000000000002
Mg30CdSnO32,mp-1095703,1.6414999999999988
CaMgNiH4,mp-24052,1.873
Na2SO4,mp-1173871,1.6482
Li2MnBr4,mp-1222679,1.6389999999999998
ZnP2,mp-11025,1.5787
Tm2Se3,mp-32850,1.6557999999999995
Ti3Fe9O16,mp-530877,1.5073999999999996
CoSn(PO4)2,mp-863354,1.8086
Nb2Zn2SnO8,mp-1042811,1.9143
MgFe3(OF)3,mp-2217159,1.8725
Na6La6Ta2Si5S7O48,mp-2716047,1.7239000000000002
KSrSb,mp-1100429,1.575
LiV2OF5,mp-760019,1.7492
Li2Cr3O10,mp-772426,1.8001
Ba3Sm2WO9,mp-1228249,1.8953
SbO2,mp-1377931,1.8132999999999997
HfTi(SnO3)2,mp-1520521,1.8075
Li2V(OF)2,mp-1311685,1.5271
Ti3Fe2(BiO3)6,mp-1217427,1.577
BaDyNbSnO6,mp-1516666,1.7764000000000002
Na7Ca3GeP5SO24,mp-2715880,1.7352
MgCr4(WO6)2,mp-2230282,1.7657999999999996
CsSbS2,mp-561639,1.7363999999999995
MgMnZn2WO6,mp-2217882,1.5204999999999995
V6O5F19,mp-759809,1.8984
PrCuSO,mp-6166,1.6415999999999995
LiVFe(P2O7)2,mp-1176547,1.6263
Li3Fe3(PO4)4,mp-758557,1.9448000000000003
CdCl2O,mp-725216,1.7956
Na6Zn3Si2Ge(SO6)4,mp-2712616,1.9695
K4MgMo2(SO3)2,mp-2232272,1.5108
B4C,mp-696746,1.5149
CsTmCdTe3,mp-12496,1.548
MgScNi2SbO6,mp-2234075,1.8058000000000003
Sm2TiMnO6,mp-18794,1.6792000000000002
CeZrO4,mp-4843,1.7423000000000002
Cs3P11(H3N)3,mp-1204998,1.9621
Na30Ca8Nb16Si27(SO16)9,mp-2714311,1.5502
MgFe4(OF)4,mp-2218721,1.9102
Na5Ca2Ti2P5SO24,mp-2714956,1.8521
Na9Ca4Nb2(PO4)9,mp-2715247,1.9662
Ba3Fe10SnO20,mp-1228526,1.7977999999999998
Te3C2S2(OF)6,mp-1194943,1.9664
Na3MnO4,mp-1210340,1.8461
Ce4ThO10,mp-1226874,1.6831999999999994
Na2LiRhF6,mp-1114234,1.8438
CaScCu3Se4,mp-1181925,1.8379
Na2Hf4Si5Ge4S7O48,mp-2716152,1.6682
Na3CoO3,mp-776646,1.5319999999999998
NaMn3F10,mp-541104,1.5530000000000002
Rb2NaMnF6,mp-558050,1.6786
MgSbS2NF6,mp-2217781,1.8362
Hg(Mo3Cl7)2,mp-27779,1.7414999999999998
Ca(CoO2)2,mp-1341371,1.954
CaLa2Co2Sb2(PbO6)2,mp-1233131,1.8872
Na5InO4,mp-14493,1.7202000000000002
Ge3N4,mp-13852,1.9026
Li5Cu(PO4)2,mp-780392,1.8462
Li4VCr3O8,mp-753616,1.5930000000000004
LiVFeP2(HO5)2,mp-760163,1.5472
As2S3,mp-1189572,1.9873
AlCuO2,mp-3748,1.7978000000000005
Mg30FeSiO32,mp-1037606,1.851399999999999
KMg30BO31,mp-1040297,1.6184999999999992
LiFe2(BO3)2,mp-764505,1.6654000000000002
NbSe2SN2ClF6,mp-560589,1.9763
Li3Fe4SbO8,mp-756320,1.513
Zr2N2O,mp-776273,1.6695000000000002
YMo(WO4)2,mp-1042328,1.8154
Li2V4Si4O13,mp-767720,1.9007
Na10La4Nb4Si9(SO16)3,mp-2714214,1.8745000000000005
Nb2O5,mp-1201852,1.9717
LiMoP2O7,mp-18987,1.5360999999999998
GdSbO4,mp-1213602,1.6361999999999997
V6O5F19,mp-780467,1.7261
WSCl4,mp-27475,1.9545
CaFeBP2(HO5)2,mp-1199046,1.592
TaP4(S2Cl)5,mp-1208658,1.7349
Fe2Os(CO)12,mp-683792,1.6895
KMnF3,mp-1180746,1.7405
SiC,mp-570690,1.6644000000000003
Li5Ti2Fe3O10,mp-1177123,1.7744000000000004
Cs2NaMn(CN)6,mp-20915,1.9383
Rb2FeO4,mp-1101471,1.7002
AlPO4,mp-1183022,1.9258
Nb2Si3Ge2(SO8)3,mp-2713904,1.5074
Rb2Ti(AgS2)2,mp-1209316,1.5994
TaNb(Cu3S4)2,mp-1217925,1.7338
MoS2,mp-1025874,1.5093
CaSnO2,mp-1045925,1.6932999999999998
Co2As2O7,mp-1288147,1.9878000000000005
LiFe2(BO3)2,mp-764547,1.6316
K2TbNb5O15,mp-1211773,1.867
H6N4O9,mp-1181373,1.6800000000000002
Ba4Sm2Cd3S10,mp-10410,1.8926
TaZn2MoO6,mp-1377229,1.7404999999999995
SiC,mp-568619,1.7509999999999994
Rb2CuCl3,mp-640053,1.9854000000000005
Zn3Sn3(AsO4)4,mp-1333351,1.9343
Sm2O3,mp-1219167,1.7192
Mg3VO4,mp-1024068,1.538400000000001
Fe2OF3,mp-777541,1.632
LiVCO5,mp-1176659,1.7315999999999998
Li7V(O2F)2,mp-867592,1.7696999999999998
Sn2OF5,mp-29590,1.9108
Na2TeO5,mp-1188958,1.7589
Cs2U3(TeO7)2,mp-562366,1.8635
Sr2CeSiO6,mp-1521551,1.763
Sm3CuSiS7,mp-554097,1.6556999999999995
Na5Nb2Zn2SiP5O24,mp-2715870,1.7860999999999998
Al3Bi5Cl12,mp-646102,1.8216
SrCaTbVO6,mp-1517712,1.6166999999999998
Ba4(PtO3)3,mp-860960,1.5671000000000004
Zn3Mo2O7,mp-1374543,1.6887000000000003
Cr2C13SN3(O2F)5,mp-699555,1.8131
MgMnO2,mp-1080243,1.9842000000000004
Sm2MgS4,mp-1232111,1.7418000000000002
Y2MoO6,mp-31124,1.9796
Na10Mg2Si7Sn6S5O48,mp-2716017,1.6924999999999994
RbSbS2,mp-10621,1.9493
Ba4AgAuO6,mp-556896,1.8623000000000005
LiCrPO4,mp-756532,1.8077
HoMoBrO4,mp-1193901,1.8564
Na6Ti7ZnSi6(SO8)6,mp-2714648,1.6999
SrCaNb4O12,mp-1519971,1.6939999999999995
TlHO,mp-626690,1.5129
ZrNF5,mp-732208,1.972
BeNF3,mp-1188955,1.7006
BiRu2(CO)6,mp-652854,1.78
MgSb2(O2F)2,mp-2223070,1.9672000000000005
Sr2DyBiO6,mp-1522016,1.9765
MgCd2(BiO3)2,mp-2240397,1.986
Na3Ca2BiO6,mp-658695,1.6483
MgV2O4,mp-1376216,1.5065
CdSbS2Cl,mp-557049,1.6373000000000002
BaMgTe2O7,mp-865532,1.8494
Na2LuCuCl6,mp-1110994,1.7902
ZnSeO4,mp-769321,1.7134999999999998
Na3BN2,mp-28630,1.6485000000000003
W3O8,mp-1042978,1.6341
Na3VS3O,mp-19422,1.8185
K3CuO2,mp-28273,1.5215999999999998
K2Na(SbO3)3,mp-1223796,1.9091
K2CdSnSe4,mp-1079645,1.6721
Ba3WN4,mp-14743,1.965
Mg(ScSe2)2,mp-1232162,1.7652
LiCr(PO3)4,mp-759423,1.5275
Dy2O3,mp-1225275,1.5409000000000002
NaIn2Ge2P3(SO8)3,mp-2716302,1.5694999999999997
KZnCl3O2,mp-732165,1.8267
Sr3BCNCl2,mp-616577,1.8788
WSCl4,mp-979414,1.965
Li4V3FeO8,mp-765701,1.5136999999999996
Al(ICl2)3,mp-672352,1.7106
BaSrDyVO6,mp-1516351,1.6306999999999996
NaNbO3,mp-1199593,1.6316000000000002
C15S4,mp-28709,1.5195
VPO5,mp-1104567,1.8997
KCNO,mp-1223461,1.9771
CeTlF5,mp-1213886,1.511
V2O3,mp-1272087,1.5206999999999995
Cs2CoAgF6,mp-1113539,1.8768
LiV2OF5,mp-775943,1.7232
FeAg(SeO3)2,mp-704626,1.6046
Eu(BH4)2,mp-2646920,1.572
Na5TiAl3Si3(SO8)3,mp-2716559,1.7502999999999995
KFe3H6(SO7)2,mp-1192851,1.8639
Y2MgV2O8,mp-2218585,1.6823
BaMo(PO4)2,mp-1542939,1.7041999999999995
Na4Mg3GeP2(SO6)4,mp-2713173,1.7453
Ca(IO2)2,mp-725059,1.5879
Ni3H12C10NO6,mp-559247,1.6887
MgCr2Fe3Ni(PO4)6,mp-1233795,1.6568999999999998
CaLaCrMoO6,mp-1048863,1.5053
IF7,mp-1184928,1.8027
Na2MgW4O13,mp-2230112,1.8534
Na14Ti6Zn2Si9(SO16)3,mp-2714717,1.7531999999999996
AuCl,mp-32780,1.9094
AlVO3,mp-1178549,1.569
Ba2S3,mp-28978,1.6147999999999998
Pr2MgTi4O12,mp-2230313,1.8
Rb3Sb2I9,mp-1209693,1.9237
K2MoO8,mp-559525,1.7135
Na2InGe(PO4)3,mp-2713554,1.9345
KBaLaSeO6,mp-1521277,1.9081
MnP(HO)7,mp-735547,1.9563
LiMnAsO4,mp-20052,1.6879000000000004
Cs2NaMoCl6,mp-1111434,1.6371
Hg2MoO4,mp-558802,1.5605
Al2PbSe4,mp-675374,1.9961
MgCO6,mp-1198523,1.9396
W3O8,mp-1042656,1.8159
ThNb4O12,mp-862893,1.9434
BaNa6O4,mp-779453,1.6482
Li3NiOF3,mp-752550,1.9121
Ti2CoO5,mp-1101114,1.6182000000000003
LiTiFeO4,mp-1222485,1.9847000000000008
Ge(PbS2)2,mp-531296,1.9788
BaMnNb4O12,mp-1523208,1.8824
Mg30MnSiO32,mp-1038035,1.9765
Zn4B6SeO12,mp-14921,1.8571
Sr(LuS2)2,mp-1192751,1.8411000000000004
Na6ZnSe4,mp-1024047,1.7462
Na10Zn2Si7Sn6S5O48,mp-2714061,1.5981999999999998
ZnSeO5,mp-1178632,1.7682
Na14Ti4Zn4Si7S5O48,mp-2715759,1.5274
LiCrPO4,mp-772647,1.9035
HgI2,mp-583213,1.7375
H17RuN6Cl3O2,mp-1182775,1.5332
Co3C7S2O7,mp-707110,1.5411
Ca2HN,mp-24119,1.6356000000000002
Sr2MgZn2Sn2(PO4)4,mp-1234671,1.7645000000000004
CeHfO4,mp-770372,1.5109999999999997
RbH2N,mp-697144,1.9074
LiCu(PO3)2,mp-25975,1.8046
H12RuSN4(ClO)2,mp-773113,1.9291
TlAsS2,mp-4988,1.677
AlRhO3,mp-1178547,1.7659000000000002
H4I3N,mp-28281,1.8564
Ti2CdO6,mp-1101127,1.9877
As2Pb4S6ICl,mp-561299,1.829
TiIn2O5,mp-505177,1.9707
Ti2FeO5,mp-28231,1.5189999999999997
Li3Cr3(PO4)4,mp-26337,1.9048
Dy2FeSbO7,mp-1225341,1.7960000000000005
CeTh9O20,mp-760080,1.9639999999999995
AlGaP2,mp-1228888,1.6344000000000003
UH10C4S(NO3)3,mp-1204315,1.5708000000000002
TiH14(OF)6,mp-720741,1.5989
V3H4NO7,mp-1192720,1.5712
Li4Nb2Fe3Te3O16,mp-753159,1.8121000000000005
MgFe2Mo2(ClO4)2,mp-2226849,1.561
Na7Fe4(PO4)6,mp-554409,1.6128000000000002
LiVSiO4,mp-802523,1.5381999999999998
V6O5F19,mp-760859,1.7256000000000002
K2ReF6,mp-7824,1.6997
K2HgBr2(NO6)2,mp-561222,1.9283
Rb2PdN2(ClO2)2,mp-554602,1.5977
NaCaFe2(SiO3)4,mp-1565615,1.6048999999999998
Sr6Mg(Te4O11)2,mp-1234493,1.9393
CuAs2Pb8Cl5O9,mp-653930,1.5363999999999995
Li8CoO5F,mp-1176847,1.7086
BaO,mp-1245298,1.7226
Ag2MoO4,mp-19318,1.8731
VZnPO5,mp-1046701,1.7397000000000005
K3H3Pd,mp-707337,1.7674
Na6CaSi2Ge3(PO6)4,mp-2715244,1.8101
Mg30AlCO32,mp-1038189,1.8304
H8PtO6,mp-626835,1.9426
Na3Sr7Ta3Ti7O30,mp-40519,1.7944000000000004
NaFeAsO4F,mp-1210021,1.5887000000000002
BaCaBiSbO6,mp-1522558,1.6858000000000004
LiVP2O7,mp-758583,1.9374
Rb2PrCuBr6,mp-1110720,1.9411
Li2UWO7,mp-1223021,1.87
LiV3O8,mp-755827,1.8409
Na2Nb5Al3(PO4)12,mp-2713754,1.8831
Fe3Te2(CO)9,mp-652337,1.7140999999999995
Na6La5Nb3(PO4)12,mp-2714814,1.9878
CdGa2(SeS)2,mp-1226810,1.6405
BaSrNdBiO6,mp-1519269,1.7161
Mg7GeN6,mp-1246128,1.5064000000000002
Na4Ti5Mn4O18,mp-766831,1.6888999999999998
LiMg30BO31,mp-1040077,1.8835999999999995
CaHgAu2,mp-1093882,1.6528999999999998
VH3(C2O3)2,mp-1208136,1.7959
Na2U2O7,mp-1190548,1.5582000000000005
Ag2Mo3SeO12,mp-556429,1.5519
SnI4,mp-571436,1.5183
Li3Cr3(PO4)4,mp-26289,1.8602
YMg30BO32,mp-1037433,1.6712999999999996
Sm2CdS4,mp-35281,1.7573999999999996
LiVGaO4,mp-1314006,1.6950999999999998
Li10Mn2V3Cr3O16,mp-760787,1.8132999999999997
H12Pd(N5O4)2,mp-557991,1.8438
CdH9C2(N2O5)2,mp-698468,1.7621
Ba2H6Os,mp-697044,1.9655
NaSnAsCO7,mp-772605,1.7495
GaCuCl4,mp-29362,1.8173
YH16C4N9O16,mp-708135,1.9535
Rb2CeCuBr6,mp-1113597,1.5744
LaCrO3,mp-18841,1.9038999999999997
CsGeBiS4,mp-553970,1.7889
TlVTeO5,mp-639714,1.9854
Na2Ta4In4Si5S7O48,mp-2716212,1.8501
Na3CaSn(PO4)3,mp-2715243,1.9935
CsCuTeS3,mp-1213683,1.8105
Na3CaAl3Si3CO15,mp-1253229,1.8002
LiFe2(BO3)2,mp-764573,1.6712
Li7IN2,mp-675941,1.7593
MgZn(FeO2)4,mp-1221978,1.7325000000000004
Li2VO2F,mp-1272911,1.6802
GdFe4(BiO4)3,mp-1225148,1.6060999999999996
MnO2,mp-1272141,1.9395
Rb2U2O7,mp-1219702,1.5077
Na12Ca10Ta2Si3(S5O24)3,mp-2713517,1.6891
TaZn2CoO6,mp-1344346,1.6709999999999998
Cs3K5Mo8(P2O11)4,mp-1227037,1.9146
AlBiO3,mp-23080,1.5859999999999994
Zn2CrSbO6,mp-1347006,1.8597
Pm2MgSe4,mp-1232208,1.6063999999999998
SiO2,mp-555411,1.6065
Pr10S14O,mp-556056,1.8415000000000004
BaSrTi2O6,mp-1227336,1.7175000000000002
Ga2NiO4,mp-532446,1.5838999999999994
NaFeBO3,mp-1101655,1.9134
Mn2Zn3(Si2O7)2,mp-1258846,1.7039
Cs2Pt3S4,mp-13992,1.6386000000000005
FeHO2,mp-626495,1.9086
CaZnO2,mp-1227007,1.5973000000000002
NbFeO4,mp-37509,1.8479999999999996
Sb8(PbS5)3,mp-22737,1.597
CaCrO2,mp-1046321,1.6415999999999995
LiMnB2O5,mp-771303,1.7142
Ba16Ca2HC12N25O4,mp-1228969,1.9597
Hg2P2H4O9,mp-757608,1.8809
Te2AsCNF6,mp-558138,1.5716
Sr(AuO2)2,mp-9298,1.5463
VPO5,mp-554181,1.6223999999999998
Ca(FeO2)2,mp-1041171,1.6264999999999996
V3(H3O5)2,mp-1179270,1.9816
CaU(SeO4)2,mp-554227,1.9468
Hf2N2O,mp-780274,1.9789999999999992
K3Ni(NO2)5,mp-1223825,1.9658
Be(FeO2)2,mp-770953,1.8642
ZnBiWO5,mp-1044359,1.5606
Ba2InAgS4,mp-1197611,1.7053999999999996
Na4CO4,mp-552623,1.9617
MgV2Bi2(PbO5)2,mp-2215813,1.6981000000000002
Y4Cu2O7,mp-755210,1.5678999999999998
In14Ga3Pt2O8F15,mp-40373,1.9925
Ga2Fe2Bi2O9,mp-649039,1.741
Li4Fe3TeO8,mp-759294,1.753
Li3Fe4(BO3)4,mp-764459,1.6637
RhSe2Cl7,mp-613545,1.8899
K2AlInBr6,mp-1112191,1.7719
Ca4SeN4,mp-1246129,1.6934
SrLiNdCoO4,mp-1235083,1.6195999999999997
CaTe,mp-1519,1.5535
RbNbN2,mp-1029493,1.8916
Na5MgBiO5,mp-2218244,1.7321999999999995
Tb3CuSiS7,mp-560501,1.7330000000000003
DyWO4,mp-755673,1.9468
Cs3NpH8O9,mp-1201856,1.6332
LuCuPbS3,mp-1222325,1.5582000000000005
VF3,mp-559931,1.6025
BaCaMnWO6,mp-1516715,1.8852
VZnAsO5,mp-1355262,1.7277
KMg14GaO16,mp-1035614,1.8608
CrBiO3,mp-559851,1.5411
SrMg2N2,mp-10550,1.6917
BaH(NO2)2,mp-1214576,1.6583
Rb2Li14Pb3O14,mp-504810,1.9342
Mo2H2O7,mp-673401,1.5720999999999998
CsNaMo(HO2)2,mp-1213441,1.6053
VPO5,mp-770892,1.6351
Fe(NF2)3,mp-1095055,1.5727999999999998
Dy10Ti6O27,mp-676314,1.8638
MgFe2Si2BiO9,mp-2232393,1.8031
Ho2Mg(SbO3)4,mp-2230915,1.7027
InHO2,mp-1105641,1.6522000000000006
Li2MnBr4,mp-28250,1.7801
Li2Mn(CoO3)2,mp-1177992,1.6124
Ba2Ti4Cr2O13,mp-1228511,1.8433
Li4NbCr(WO6)2,mp-755680,1.8451
Rb2PdCl4,mp-1025201,1.7485
SrLiH3,mp-24419,1.8195
H4C7O,mp-30184,1.986
ScTlP2S7,mp-1095287,1.9704999999999997
Sc5(SiN3)3,mp-1246340,1.5504999999999995
Mg4Ni5(TeO6)3,mp-1046508,1.854
Li4V2Si(PO6)2,mp-770503,1.8829
Sr2Ti6N2O11,mp-1101353,1.8178
K2DyNb5O15,mp-1212064,1.8612
Lu2MgS4,mp-1232133,1.9883
CaCr2P2O9,mp-1040889,1.9363000000000008
K6CdO4,mp-17161,1.5819
MoPNO7,mp-818716,1.8611
CdGeO3,mp-2951,1.5369000000000002
Cs2AgAsCl6,mp-1113543,1.5886000000000002
Li7V4P9O32,mp-27087,1.9918
MgV2(CoO4)2,mp-2219881,1.9941
Li2SnN2,mp-1029385,1.6967
TeS2(NCl)2,mp-556430,1.9841
Y2Zn3N4,mp-1246637,1.6805
H4N2O3,mp-1181417,1.5921999999999998
BaFeBP2O9,mp-1193185,1.7888
La9In(SiS7)3,mp-1224434,1.9284
KB6S4(Cl3O4)2,mp-1200783,1.7539000000000002
FePO4,mp-561445,1.7056
Mg2V3O8,mp-1662145,1.747
Li2PdF6,mp-13985,1.6748999999999998
Cs4CO4,mp-562815,1.6621
Ca2MoWO6,mp-1047241,1.9254000000000009