pretty_formula,material_id,band_gap
GaC2NCl4,mp-1181463,1.9303
Rb3DyO3,mp-756868,1.9797
NaGa3Se5,mp-570622,1.9413
Zn3Si3(SbO6)2,mp-1154534,1.7355
Ca2Ti6N2O11,mp-755206,1.7912999999999997
LiVFe(P2O7)2,mp-1235847,1.5870000000000002
LiMg6WO8,mp-1031055,1.8506
LiMn(PO3)3,mp-775915,1.8432
La9Ga5S21,mp-1224774,1.6185
Tb4Mg(WO6)2,mp-2231526,1.6360000000000006
Li2VCrP2(O4F)2,mp-760236,1.9782
Na3VSiCO7,mp-770947,1.5607000000000002
MgV2(SiO3)4,mp-2230369,1.8248999999999995
Y2TeO6,mp-771238,1.9675
LiVO3,mp-1176521,1.9941
Fe4(PO4)3,mp-31780,1.5799
LiVSiO5,mp-763247,1.5034
Li2Cr(SiO3)2,mp-758182,1.5998
Pr2MnNiO6,mp-1209751,1.6564
Cs2GeSe3,mp-1102254,1.6551999999999998
K3NaRe2O9,mp-541393,1.8231
CaMg14MnO16,mp-1036433,1.6882
Tl3AsS3,mp-559356,1.565
YCr3O6,mp-1045038,1.6191
CaFe2P2O9,mp-1040941,1.8605
La2MnNiO6,mp-1223253,1.5804999999999998
BaSrNdWO6,mp-1523224,1.8901
Li2MoO3,mp-35975,1.6018
LiMnF4,mp-752874,1.8336
LiFe2(BO3)2,mp-758691,1.5274
V(CO3)2,mp-758643,1.5352
Si4MoO10,mp-1043698,1.5668999999999995
K2Pb2O3,mp-20694,1.6906999999999996
Cr2O3,mp-776873,1.8986999999999996
Li8VO6,mp-1315015,1.8386
Se2S(NCl)2,mp-653096,1.7075999999999998
KLaNb4O12,mp-1518732,1.6122999999999998
Ge19(PCl)4,mp-1212555,1.6502000000000003
Li5AuO4,mp-1222442,1.8762
La4MgNiO8,mp-2228439,1.5546999999999995
Sr2NdBiO6,mp-23093,1.7139000000000002
Li4V3CrO8,mp-769614,1.5888
Rb2NaCr(CN)6,mp-17509,1.8634
Tb2Se3,mp-685003,1.5314000000000003
TcBi3O8,mp-554435,1.9795000000000005
Li3V3(PO4)4,mp-26101,1.9308
CaU(PbO3)2,mp-1105730,1.6803999999999997
Na2HoNb5O15,mp-1210526,1.923
K2B6H5NO2,mp-722910,1.7669
Li4Ti2V3Cr4O18,mp-774596,1.5306000000000002
Ba2LaWO6,mp-1522426,1.9219
K2FeH4(SO5)2,mp-644324,1.9558
Na3SrTiNb3O12,mp-695396,1.6565
CoP3H33C11I,mp-1203987,1.828
LiVF5,mp-761275,1.5917
CsMg6BO7,mp-1098281,1.5829
LiP4WO12,mp-758467,1.5052
Li3Fe2(CO3)4,mp-753336,1.7107
NaFe2H3(SO4)2,mp-695964,1.5629000000000002
Na4Mo(NO)2,mp-18772,1.9572
LiVSiO5,mp-780114,1.7495
CoB10H23C13,mp-1198382,1.6643
Cs2SnSe3,mp-1103379,1.7235999999999998
Fe2NF6,mp-1198504,1.8135
LiCoO2,mp-1404711,1.996
LaSO,mp-557722,1.5641999999999996
CdPS3,mp-9330,1.7726999999999995
Fe8H10O17,mp-1182260,1.5657
Ca3In2O6,mp-757442,1.9618
CaZn2(FeO2)4,mp-1233230,1.533
K2O,mp-998929,1.8534
Ca(FeO2)2,mp-1405146,1.7361000000000004
Sm9In(SiS7)3,mp-1219368,1.9216999999999995
CrPO5,mp-26496,1.6195
C2S3,mp-1214152,1.8808
K2RbMoBr6,mp-1110757,1.6014
K2SnO2,mp-752692,1.5380999999999998
LiCuCO3,mp-757800,1.5920000000000003
Li5TlO4,mp-27483,1.66
Ca3Cr3(AsO4)4,mp-1047487,1.8288
SrTi4Bi4O15,mp-1217847,1.7965
Na3CoO3,mp-31126,1.7507
Tl2(SeO3)3,mp-553909,1.9808
Ba2MgMo4(Se2O11)2,mp-1234048,1.9622
Mo(WO4)2,mp-1041611,1.9572
MgH2,mp-23712,1.9528
Na2MgMnP2O7F3,mp-2232789,1.5187
Pr(WO3)2,mp-1044751,1.6166
Er2FeSbO7,mp-1225637,1.5915000000000008
LiNi4O4F,mp-753307,1.7546999999999997
CaTiAsO5,mp-1359041,1.7906
MnP3(HO2)6,mp-1201303,1.8167
CoTe(PbO3)2,mp-1078906,1.7931000000000008
Rb4Cu5Cl9,mp-29449,1.7887
CuI,mp-22863,1.5721999999999996
V2AgP3O11,mp-1216770,1.7981000000000005
Cs2ScCuCl6,mp-1113181,1.9388
NaNb(CuS2)2,mp-6181,1.7198
Mg30ZnSiO32,mp-1037585,1.8216
V3OF11,mp-777440,1.6069999999999998
Sm3CuGeS7,mp-555978,1.7739000000000005
Sb7Se8F35,mp-28684,1.8882
Ba2YGaSe5,mp-1106265,1.6616
BaSmCrSnO6,mp-1517794,1.9597
Ca5Te3O14,mp-559210,1.6785
V3Co10AsO20,mp-1208112,1.5644
HgWO4,mp-1202359,1.768
Nb4Zn2Si3(SO6)6,mp-2713435,1.8717
Na18Mg4Nb8Si15(SO24)3,mp-2713999,1.7478
Y2W2O9,mp-772342,1.6475
SrLi2Nb2O7,mp-557857,1.6613
YCrO3,mp-18770,1.7679
Eu(AlCl4)2,mp-30022,1.6997
MgFe6O7F5,mp-2230041,1.6016
H5PbCBr3N2,mp-2647056,1.7578
V2(OF)3,mp-2214695,1.8107
Rb2LiTlCl6,mp-989579,1.5623
NaH9Rh2C5O12,mp-1201841,1.7058999999999995
WO3,mp-1245267,1.9476
K2ScP2Se7,mp-1195538,1.7243
CsFeCoF6,mp-1226043,1.828
BaCaPrBiO6,mp-1523003,1.6029
V2Si2O7,mp-1281584,1.8367000000000004
LiCo3OF5,mp-851033,1.6378
SrAlSi5N7O2,mp-695285,1.6285999999999996
Li2VO2,mp-774411,1.6694000000000004
LaH6CO7,mp-1202276,1.98
Cd3(AsO4)2,mp-13602,1.6354
TlNO2,mp-676400,1.7320999999999998
Zn4B2O7,mp-686042,1.8634
Fe5(OF4)2,mp-779369,1.7760999999999998
Fe3WC14(SO7)2,mp-650029,1.5415
SrCaMnWO6,mp-1520083,1.5660000000000007
Li4Fe2C4SO16,mp-781611,1.5539
K2Hg3(GeS4)2,mp-11131,1.5507
AlNiAg2F7,mp-1214829,1.9697
CaVFe(P2O7)2,mp-1233333,1.7576000000000005
Ce4Y2O11,mp-760491,1.8249
MoO3,mp-715584,1.9098
LiTiFeO4,mp-1235595,1.5656000000000003
InPO6,mp-1212782,1.6123999999999998
BaSrPrVO6,mp-1520991,1.6564
TaP4S4Cl5,mp-555967,1.8505000000000005
TaTi9Al3Zn23O48,mp-686614,1.6732
Li2CrFeO4,mp-863081,1.6659000000000002
NaSrCeSbO6,mp-1519609,1.9744
Li6Mn(OF)3,mp-753452,1.9407
Sr2NbCoO6,mp-1218740,1.5007
Mg30MnCO32,mp-1037884,1.9097
Zn2CrFe3O8,mp-1215777,1.6213000000000002
Li32Ti13Cr3O48,mp-1177811,1.529
Pr3CuGeS7,mp-556962,1.6603000000000003
Mo2P2O11,mp-504196,1.8519
Sr2SmVO6,mp-1521309,1.6372
Mn5As4(HO2)10,mp-1204184,1.7254999999999998
Li4V3(FeO6)2,mp-760208,1.8134
ZnSn(GeO3)2,mp-1042955,1.9382
Ag2Pd(NO2)4,mp-1195817,1.8404
DyMoBrO4,mp-1192462,1.8414
Ge3(TeO6)2,mp-1326175,1.5608999999999995
NaMnPO4,mp-775855,1.8966000000000005
Cd(HO)2,mp-625548,1.637
MgFeAs2O7,mp-1042809,1.7611
Ca2Mo3O8,mp-1042855,1.6638000000000002
Li5Fe8(BO3)8,mp-764643,1.5151
Cr2H24(IN3)3,mp-720712,1.7647
B2S3,mp-866066,1.5315
Na2Sc3NbSi2(SO6)4,mp-2712531,1.7191999999999998
Na3LaSi2GeSO12,mp-2714425,1.5683
Cd2AsO4F,mp-541677,1.7050999999999998
PNO3,mp-726260,1.7652
SrMg3GeN4,mp-1218193,1.8159
NaTiInSi(SO6)2,mp-2712697,1.7024
Na9Mg4Nb2(PO4)9,mp-2715301,1.7057
Pr2MgCr2O8,mp-2218317,1.66
CsK2PdF5,mp-8959,1.8661
KAgF4,mp-7387,1.7377999999999998
K9InSe7,mp-568644,1.8024
RbPSe6,mp-17945,1.8608
Cs5Nb2S4Cl9,mp-621112,1.7925
CsVP2O7,mp-562901,1.5429
Fe4As5O13,mp-28519,1.7174999999999998
Na10La4Si7Ge4S5O48,mp-2714174,1.5526
BiSI,mp-23514,1.8669
VAgO3,mp-624691,1.6463
Te3WO12,mp-756661,1.6396000000000002
CaSn(SO4)3,mp-2713880,1.7422
Sm2MgS4,mp-1232095,1.9525
La2Se3,mp-32798,1.5389999999999997
LiAlVO4,mp-753631,1.5154
LiNdS2,mp-36791,1.6009000000000002
LiVPO5,mp-753249,1.668
V2P2H2O11,mp-1198775,1.785
Hg3(SBr)2,mp-559832,1.609
ZnAgPO4,mp-1207494,1.7170999999999998
Tb2SeO2,mp-1101329,1.8715999999999997
Na4Mn2P2O7F6,mp-1201699,1.5858
K3Ta2S11,mp-558967,1.7172999999999998
MnAlSiO5,mp-1210817,1.7544000000000004
TlN3,mp-870,1.7584
YMgCu3Se4,mp-1178705,1.6511999999999998
LiCuS,mp-774736,1.6975000000000002
NaErSe2,mp-8584,1.9258
CoAgPO4,mp-1275604,1.7666000000000004
MgCoF5,mp-1343674,1.9106
Cs2NdCuI6,mp-1112884,1.7889
Li2Ti3FeO8,mp-775306,1.7926000000000002
LiMn2F7,mp-759527,1.5734
K2Y4Sn2S11,mp-560785,1.5806
LiMnH2OF4,mp-1197533,1.9511
La2MgS4,mp-1232241,1.6753
Ag3BiO3,mp-505145,1.5250000000000004
Zr2N2O,mp-775844,1.5814000000000004
Pt(SCl3)2,mp-28722,1.8217
CsMnO4,mp-18994,1.8635
CoH5CN(ClO)2,mp-1190433,1.7077
Rb2U2O7,mp-560458,1.6672
Sr2SmBiO6,mp-1520392,1.9436
Zn2MoWO6,mp-1784691,1.6835
ScPO6,mp-1209605,1.613
K2U3(IO5)4,mp-556374,1.8921
Sb6O13,mp-1219481,1.8116000000000003
Li9Fe5(SiO8)2,mp-767668,1.6460999999999997
CsHgBr3,mp-1194175,1.9018
UPbO4,mp-504922,1.5098000000000005
Cs2LiTlCl6,mp-1112999,1.5236
GaRe(Cl3O)2,mp-561379,1.6391
KMgP,mp-1018737,1.6589
Li2V(OF)2,mp-759885,1.5585999999999998
P3RhO9,mp-14935,1.6795000000000004
Mo(PO4)2,mp-704210,1.7345
TiO2,mp-766454,1.9292
Li3Mn2F9,mp-754135,1.7893
Zn(GaS2)2,mp-1078049,1.9330000000000005
MnV2O6,mp-541825,1.6249
FeAsO6,mp-1196271,1.886
Sr6Mg(Te4O11)2,mp-1234283,1.5083000000000002
CsInSe2,mp-1200720,1.6302
Fe6OF11,mp-754847,1.8698
V(GeO3)2,mp-1043195,1.6478000000000002
Cs2MoS4,mp-560635,1.7357999999999998
Sr2LiCoWO6,mp-1236582,1.9398
HoScS3,mp-1189393,1.7663000000000002
TmSeF,mp-1207668,1.8704
ScMnO3,mp-1105811,1.7979999999999996
Rb2MoS4,mp-18612,1.575
Fe3NF9,mp-1212814,1.6916
Rb7U8V2ClO32,mp-704417,1.5465000000000002
Rb2NaRhF6,mp-14038,1.957
VP2O7,mp-25294,1.518
Rb2CaNd2(WO4)4,mp-1233681,1.9984
Na3V2(PO4)3,mp-761059,1.9299
Li2V3WO8,mp-1309047,1.6544999999999996
Li2VFe(P2O7)2,mp-759523,1.8512
RbC4N3O4,mp-1209688,1.6286
Ca2VN3,mp-17892,1.6511999999999998
Tm2SeO2,mp-754475,1.9593000000000005
Li4V3CrO8,mp-769628,1.9995000000000005
Na2Nb6Al2Si7S5O48,mp-2715801,1.864
Ba2H4Pd,mp-1193896,1.7035
Li2Fe3F8,mp-1178071,1.7819
SiO2,mp-561301,1.9962
LiFeP2O7,mp-758762,1.9003
YCuS2,mp-12843,1.7907000000000002
Li6V3P8O29,mp-1177009,1.5143000000000002
K3MoCl6,mp-27643,1.6431
Li4Fe5Ni(PO4)6,mp-760788,1.5656000000000003
UTeO5,mp-3516,1.8368
MgVPO5,mp-1273519,1.9802
CsMnH24(SO10)2,mp-729644,1.8193
Li3Fe(PO4)2,mp-759639,1.8868
BaSr2In6O12,mp-1227894,1.8143
PrNb3O9,mp-1173439,1.7191
KSrSmSeO6,mp-1516725,1.9386000000000003
MnAl(WO4)2,mp-1576333,1.9543
CsCuC2,mp-1025439,1.7321
Zn3Ni7O10,mp-754030,1.7526000000000002
VP2PbO8,mp-1216361,1.7906000000000004
FeAg3F6,mp-1205948,1.7972
VP2NCl10O,mp-561324,1.6309
Li3MnCoO5,mp-1174053,1.6399
CaFe3P3O13,mp-560784,1.6386000000000005
Na2Ti2Si3Sn2(SO8)3,mp-2713400,1.6570999999999998
Na2U2O7,mp-1221282,1.5587999999999995
Nd2S3,mp-32586,1.7865000000000002
LiVOF3,mp-764721,1.607
TbHSe,mp-1207080,1.5054999999999996
CdH2(BrO3)2,mp-1213914,1.9558
BaLa3TiCr3O12,mp-1227949,1.8743
Mg(SbO3)2,mp-1048765,1.5252
KMgNi2H3(SeO5)2,mp-1233549,1.869
Lu4Mg(Te5O13)2,mp-1234466,1.6799
WO3,mp-636284,1.6648
H2W2O7,mp-625525,1.7049
Na3TiFe3O8,mp-1221213,1.7711000000000006
Mo2H12C4N2O15,mp-1181609,1.9879
Li5MnF8,mp-1177082,1.9837
Mg3Si4(SnO7)2,mp-1248487,1.5512999999999997
HgH2SO5,mp-1224117,1.9665
MgV2Ni(TeO5)2,mp-2233001,1.5287999999999995
V2CoH4C4(NO3)2,mp-562114,1.9733
BaCaFe4O7,mp-1193438,1.5647000000000002
CsRbMg14O15,mp-1099231,1.9776
Li4Ti3O8,mp-758836,1.7453
WO3,mp-1244929,1.7682
Mn2Fe5(SiO3)8,mp-1210841,1.8955
SbS7IF6,mp-555408,1.9994
Na14Ti3Zn5(PO4)12,mp-2714157,1.978
K2InP2S7,mp-862780,1.8784
SiMoO4,mp-1142857,1.6105999999999998
LiFe2(BO3)2,mp-759371,1.5273
K2SnCl4O,mp-726672,1.624
CeHfO4,mp-1178500,1.5736
MgVFe(P2O7)2,mp-1233634,1.6975999999999998
V2OF5,mp-775438,1.5074999999999998
Li3Fe8(BO3)8,mp-1177659,1.8066
MgFe4O5F3,mp-2219511,1.8585
La2VZnO6,mp-1405776,1.7017999999999995
Sm2FeSbO7,mp-1219197,1.7970999999999997
Mg30SiSnO32,mp-1036665,1.7932000000000006
LiFe2OF5,mp-776544,1.7574
NaNbO3,mp-1199037,1.7575
H17RuN6ClO3,mp-1212573,1.8939
LiNiBO3,mp-775976,1.8427999999999995
Li3CrPCO7,mp-1177745,1.8953
Ag2BrNO3,mp-556345,1.6045
Li7Cr7P6(O8F)3,mp-759336,1.5399000000000005
Mn2Fe3Sb(PO4)6,mp-775850,1.9076
MoI2,mp-1198690,1.6796000000000002
Na3SbI6,mp-1110813,1.8721
V6O5F19,mp-780624,1.7271
FeBiO3,mp-23501,1.6328999999999994
Na5La3Si3Sn(SO8)3,mp-2713461,1.8647
Li5MnP2(O4F)2,mp-758807,1.6278
LiMg6FeO8,mp-1032467,1.5393
MnH6(NCl)2,mp-1221677,1.5529
RbHoSe2,mp-10783,1.9587
K2Hg3(GeS4)2,mp-17792,1.5520999999999998
V2O5,mp-1245120,1.8843
KFe2H(SeO3)4,mp-735586,1.8546
NdSO,mp-1209906,1.6345
K4Ba2N7O16,mp-695895,1.6305
ErFeO3,mp-19935,1.5703
Er2CoTe2(SO7)2,mp-1190196,1.8416
MnH16C4N(OF2)2,mp-727111,1.9584
TiMnO3,mp-556925,1.5326
KP2H4PtO9,mp-1195234,1.9184
Li2FePCO7,mp-768508,1.6345999999999998
ErCrTeO6,mp-1213065,1.5039000000000002
Na14Mg2Si9Sn6(SO16)3,mp-2714787,1.9466999999999997
CaV2P2O9,mp-21541,1.5018000000000002
NaFe(WO4)2,mp-22076,1.9174
Li3V3(PO4)4,mp-757990,1.8697
Gd2Nb2N2O5,mp-782011,1.593
Pr2Si2PbSe8,mp-1220047,1.8305
VOF2,mp-777337,1.5961
SiH8C4F3,mp-1219313,1.9755000000000005
WN2(OF4)2,mp-836221,1.5059999999999998
C2SeNClO2,mp-1192990,1.9036
RbLaZr6FeCl18,mp-1209639,1.6184
Nb2O5,mp-581967,1.6713
ZnBiWO5,mp-1042736,1.7176
Na5Ti3ZnSiP5O24,mp-2716098,1.8677
Ba5(GaSe4)2,mp-1204617,1.8701
Li3V2(PO4)3,mp-759065,1.8559
Cr(PO3)2,mp-754772,1.9037999999999995
Nb2Co4O9,mp-1291928,1.8495000000000004
CaFe3P3H2O13,mp-1197792,1.6496999999999995
RhCl3,mp-27770,1.5212
TlI,mp-23197,1.8107999999999995
Rb2U3(TeO7)2,mp-542501,1.8513
Sr6Li2Cr2N8O,mp-555994,1.8288
ZnH12(NO3)2,mp-1207751,1.9173
KAlTe2,mp-10165,1.7037
Hf2N2O,mp-780230,1.9989
Rb2AgSbS4,mp-557540,1.6372
ZrTi(PbO3)2,mp-1079416,1.7537000000000005
LiFeOF2,mp-779787,1.8972
Ho2MgS4,mp-1232304,1.6183999999999998
NiSn(ClO)6,mp-1180055,1.526
K5Th(PS4)3,mp-628680,1.976
Ba3P4O13,mp-675756,1.697
SbP2O7,mp-561057,1.9438
Cs2KAlI6,mp-1113057,1.7447
Sb2Te(SeF5)2,mp-6407,1.7622000000000002
Na14Ca4Ti4Si7S5O48,mp-2715657,1.5779
MgP2WO7,mp-1048590,1.6418
Rb2Cr2As2O9,mp-622624,1.9248
Na2PSe3,mp-567228,1.7908000000000002
LiY2(FeO2)4,mp-1235662,1.818
Sb3Cl11F4,mp-1209457,1.6636
Ba2H2Pd(S5O17)2,mp-1195529,1.5874
Sr9ThCl22,mp-1173190,1.9808
LiTiCrO4,mp-756275,1.6508999999999996
Tl2GeS3,mp-7277,1.7699000000000005
BaGdNbSnO6,mp-1521784,1.7018999999999995
Gd2MnSbO7,mp-1224711,1.6004000000000005
Ba2Sb4P2O17,mp-554481,1.8893
TiFe2O5,mp-1101048,1.9740999999999995
NaFe3H6(SO7)2,mp-510606,1.8201
Mg(InS2)2,mp-1232207,1.5118000000000005
TiNb(BiO3)3,mp-1216832,1.7575000000000005
LiFe2(BO3)2,mp-764514,1.5942999999999998
Li3Fe(PO4)2,mp-760008,1.8956
LiVF4,mp-759816,1.9744
KAgCO3,mp-1191888,1.5675
La4FeSe6O,mp-1312000,1.6208999999999998
Cs2AgAsS4,mp-561622,1.5615
Na5NiCO5,mp-1220779,1.6222
Sr4HfTi3O12,mp-1218423,1.8067999999999995
K2ScCuCl6,mp-1112159,1.8772
Fe7Si3(H4O9)2,mp-1225755,1.5576
SrNbFeSnO6,mp-1518938,1.7969999999999997
La2MgMoO6,mp-2217098,1.5021000000000004
Tl4SiS4,mp-8479,1.9544999999999997
BaMo2P3O14,mp-555195,1.5323000000000002
NaLiZnS2,mp-1220972,1.8298
TlP2HO7,mp-1199029,1.9415
K2CuBr3,mp-571440,1.9018
Ba4Ti2PtO10,mp-558894,1.9973
Fe2C2O7,mp-752896,1.627
RbMg30CoO32,mp-1037038,1.9051
LiMn(CO3)2,mp-752540,1.6734
AlMo3F15,mp-1041498,1.8206
LiAgF2,mp-752767,1.634
Ag3AsS3,mp-561620,1.6277999999999997
Na11La7Th2Ti20O60,mp-686371,1.8209
La2MgMoO6,mp-1233315,1.9001
K2TeI6,mp-27688,1.7449
Cr2FeO4,mp-1104802,1.5987
VF4,mp-759867,1.9599
Li8TiS6,mp-753546,1.9762
AuS5N5Cl4,mp-561470,1.7333999999999998
TiMn(PO4)2,mp-774823,1.7391
Sm9Ga5S21,mp-1219403,1.7508
Ba4In2Te2Se5,mp-1193105,1.8433
La2MgFe2(TeO6)2,mp-1233693,1.7305
Ba8Ce3(SbO6)4,mp-561045,1.8772000000000009
AuBrF6,mp-30159,1.6361000000000003
KNbW2O9,mp-1223705,1.7707
NaV3O8,mp-755861,1.8967
MgCoO2,mp-1445397,1.6075
MgMn(SbO3)2,mp-2217076,1.7953
Dy2S3,mp-32826,1.9091
CeZrO4,mp-1096878,1.7356999999999996
BaMnFeF7,mp-22728,1.6811999999999998
Li3Cr3(PO4)4,mp-780336,1.976
Na4MgSi2GeSO12,mp-2714387,1.6126
Ba2PrVO6,mp-1519938,1.6605000000000003
Ba3Sc3N5,mp-1247430,1.7797000000000005
As4S5,mp-502,1.997
KHgSbS3,mp-6678,1.8396
BaMo4(PO8)2,mp-557147,1.7998000000000005
Li4CrO4,mp-772434,1.7266
Na9Mg11Ta(SO4)18,mp-2715156,1.8429
Cs2AlAuF6,mp-1113113,1.5293
Zn2BiWO6,mp-1344198,1.5619999999999998
NaNbZnP2SO12,mp-2712539,1.8827000000000005
Rb6Cl4O,mp-29468,1.6658000000000002
BaSrBiSbO6,mp-1518516,1.6669
Li2VO2F,mp-753128,1.7955
Cs3Ag(AsSe2)4,mp-1199633,1.6042999999999998
MgFe2O3,mp-1275227,1.9969
MgMnF5,mp-1829192,1.7552
Li3V5O12,mp-776224,1.5843000000000005
CaMnF5,mp-1345279,1.5558
CsPb2I5,mp-1238789,1.9629
C3S8,mp-30078,1.7443
Na2Hf4Nb4Si7S5O48,mp-2715614,1.6197
NaCaTa3(PO4)6,mp-2714004,1.7221000000000002
Li9Mn2Co5O16,mp-1175404,1.6245000000000005
Li2VF5,mp-777807,1.8209
Ba5Mn3ClO12,mp-560883,1.7299
Sr3MoN4,mp-570046,1.7734000000000003
Ba4Fe12Si8ClO35,mp-1228666,1.7846000000000006
Ba10MgAs6(ClO12)2,mp-1233353,1.7397
CuMo3Cl7,mp-568397,1.9195
NaUVO6,mp-1202065,1.9662
NaMg6BO8,mp-1030755,1.8748
V2PbO6,mp-21126,1.8001999999999998
Ba2NdGaS5,mp-1228486,1.8105
Hf2N2O,mp-779982,1.9263000000000003
SbH3CSCl6O,mp-561214,1.9195
Li3FeOF4,mp-754295,1.9515
KNdNb4O12,mp-1518765,1.5341
CsLa2Ti2NbO10,mp-1225974,1.5818999999999996
BiF5,mp-1881158,1.7609
NaGaSiGe(SO6)2,mp-2712713,1.8035
ScP2NO8,mp-1197327,1.7395
La13Al12Si18(N13O5)3,mp-1265516,1.982000000000001
AlS2NCl6,mp-559940,1.6801
K2Nd2Mg(SO4)4,mp-1234139,1.6758000000000002
CaMnO2,mp-1003322,1.7860999999999998
MgNiO2,mp-2221118,1.9593000000000005
Mn(HO)2,mp-1272198,1.546
Ag6Mo10O33,mp-1205440,1.8778
Na10Ca3Ge5(PO4)12,mp-2713405,1.5881000000000003
Ba3P14,mp-1195,1.7751
Sr2CoTeO6,mp-561642,1.5099999999999998
Cs2Hg3I8,mp-540574,1.7313999999999998
Na2HgO2,mp-4961,1.6474000000000002
CoAs2S6(NF3)6,mp-1203902,1.9483
KLaGeSe4,mp-21097,1.6220000000000003
BaCaNdBiO6,mp-1522982,1.6265999999999998
Na4LaNb3Si5SO24,mp-2715126,1.9395
SO5,mp-1179626,1.8876
AgSbS2,mp-1182950,1.7447999999999997
Li3MnO2F,mp-759693,1.8572
MgFe4(PO4)4,mp-1234984,1.9779
Tb2MgS4,mp-1232112,1.8836
V3Fe3(TeO8)2,mp-774673,1.5605
Ca3SbI3,mp-1214080,1.8546
Cd2Ni6Te3PbO18,mp-1194532,1.5835999999999997
Cs4Ta2S11,mp-14578,1.7479999999999998
SbN3Cl4,mp-27351,1.7782
Cs2ZnO2,mp-504601,1.6950999999999998
LiMo2P2O9,mp-1012668,1.5289
Sr2V3HO9,mp-1192478,1.9589
Li2MnO2F,mp-1305321,1.7081000000000002
Ba2In2S5,mp-22841,1.9866
BaAlCu3Se4,mp-1182176,1.5043000000000002
Li2TiFeO4,mp-1285981,1.6326
MgTi3Nb2(PbO3)6,mp-677094,1.9826000000000008
Na7CaNb3(SiO4)6,mp-2712957,1.9285
MgCr2O4,mp-2224714,1.5233
Fe2P2H4NO8,mp-1182833,1.8033
SrNb3NO7,mp-775922,1.6897
Na7UH4S4ClO20,mp-1196696,1.8628
Rb3Tm2Cu4Br13,mp-623862,1.9138
LiDyS2,mp-15789,1.9347
Ca3AsCl3,mp-28069,1.8439
Li2MnV3O8,mp-1302458,1.7233
Na2CaTiP2SO12,mp-2713239,1.8294
VH8C10N3Cl4,mp-706688,1.5358999999999998
MgV2CoO7,mp-1042542,1.9566
RbMn4(AsO4)3,mp-15282,1.723
MnNb4O12,mp-775807,1.6053
Na10In4Si7Sn4S5O48,mp-2716039,1.6874000000000002
Hf2N2O,mp-776225,1.9416
Cs2U(Br2O)2,mp-572551,1.9545
TlIn(PS3)2,mp-1105440,1.5729000000000002
Li6V2O5F2,mp-764951,1.5433
Li2Cr3WO8,mp-775271,1.8534
Fe3(P2O7)2,mp-559713,1.8996
Sr2CaTi3O9,mp-1218851,1.7798999999999996
Sr2AlGaSn2O7,mp-1048033,1.6094
NbAgN2,mp-1245369,1.6891000000000005
Sr5ZrTi4O15,mp-1218534,1.9467
LiFe(PO3)4,mp-26126,1.8014
Mg30CdSnO32,mp-1095700,1.7188
Na7Nb2Zn2Si3(PO8)3,mp-2714996,1.7647
Rb4CO4,mp-556527,1.6338
Nb9VO25,mp-774246,1.768
MgAlCu(WO4)2,mp-2241036,1.7977000000000007
LiCrO2,mp-762454,1.7688999999999997
KLaFeSbO6,mp-1520811,1.6969000000000003
LiLa4MnO8,mp-754290,1.6309000000000005
Rb7NaSi8,mp-1202504,1.6935
Ce14Y18O55,mp-531963,1.6835999999999998
Mg3Fe2O5,mp-753595,1.934
Na8CaSi5Ge3SO24,mp-2716272,1.6863
Na6Sc6Ta2Si5S7O48,mp-2715983,1.6104
Na3Sr4La3Ti10O30,mp-695582,1.9424
LiFe4(BO3)4,mp-761212,1.5153
La2Mg(CoO3)2,mp-2240032,1.9267000000000003
Fe3Pb8F24,mp-735822,1.6795999999999998
Li2O2,mp-841,1.9743
CsAuSe,mp-574599,1.7093
Ba2MgMnWO6,mp-2240183,1.7668
Tb2MgV2O8,mp-2219204,1.6977000000000002
BaSrLaVO6,mp-1520541,1.7227
Li2Fe2B2O7,mp-779057,1.9294
Ga2S3,mp-539,1.7106
In6WO12,mp-20099,1.7679999999999998
KSbO3,mp-14607,1.7858999999999998
Li4Mn3Co(PO4)4,mp-758017,1.9345000000000003
Ba4Re2NiO12,mp-1228183,1.8907000000000005
Ce2Nd2O7,mp-686001,1.6430000000000002
Na10Ca4In4Si3(S3O16)3,mp-2714913,1.5812999999999997
MgVCrO4,mp-1221990,1.8579000000000003
Na4LaTiSi2PO12,mp-2715727,1.9218999999999995
KCeNbSnO6,mp-1520451,1.6239
HoTlS2O9,mp-1212994,1.7191
Na4MnAl3Si3O16,mp-694964,1.7946
V2(SO4)3,mp-770389,1.6098
Li2CdSnS4,mp-1188784,1.9513
Ba2NbCoO6,mp-1228382,1.5345999999999995
Na5TiZn3P3(SO8)3,mp-2714682,1.5407
Al2FeP2(HO)18,mp-1183004,1.982
Fe3OF5,mp-779913,1.7289
CeHfO4,mp-756276,1.7957
K6Ba2CaU6O24,mp-691065,1.9524000000000004
LiVF5,mp-765781,1.7843
Li4Cr3CoO8,mp-1308674,1.7527999999999997
KBaMnO4,mp-1192441,1.8093
Li2NiSnO4,mp-758684,1.8763000000000003
Na2Mg5Sn3(SO4)12,mp-2714642,1.5463
KSrCeBiO6,mp-1523185,1.6021
Sr2La2MnZnO8,mp-1218782,1.5530999999999997
TiVO4,mp-1275288,1.5164
TaTi9Al3Zn23O48,mp-695545,1.6626000000000003
MoNCl3,mp-23396,1.6768
GeH10Se3N4,mp-1205224,1.5415
MnZn2WO6,mp-1291397,1.9933999999999996
Li2FeO2F,mp-754677,1.6678
Rb2Hg2PdBr8,mp-567515,1.5753
NaMg6WO8,mp-1030710,1.7015000000000002
Mg(BiO2)2,mp-2224741,1.6961999999999997
KGdNb4O12,mp-1520316,1.5497999999999998
Gd2MgTl2(WO4)4,mp-1233756,1.7665000000000002
CoS3N3O2,mp-1202862,1.5254
MgO,mp-1245232,1.8877
Li2HfN2,mp-1097065,1.9346
Ca2CrWO6,mp-1272359,1.8837
K3MnH5,mp-643245,1.5729
MgV4(O2F)4,mp-2228935,1.5331
PtCI2O,mp-558381,1.5982
Li2B2Se5,mp-30100,1.7047
BaMg30CrO32,mp-1038639,1.5460999999999991
LiV3(OF2)4,mp-752988,1.8348
Co(PO2)2,mp-1213752,1.7124
ZnFe2As2(HO5)2,mp-766713,1.6353
Os2Xe(O3F5)2,mp-1205001,1.9286
Na5Y2SiGe2P5O24,mp-2715974,1.6694
PIrS,mp-1220004,1.8653999999999995
V2F7,mp-759957,1.5088
LiV2OF7,mp-1283001,1.8309
Zn2MoWO6,mp-1374028,1.6820999999999997
Fe2WC10(SeO5)2,mp-557864,1.955
AgIO3,mp-849271,1.9765
La2GaN3,mp-568036,1.8032000000000004
V3P4O15,mp-28425,1.9616
FeH8(BrO2)2,mp-24537,1.7042
NaInGeP2SO12,mp-2712578,1.5921999999999998
BaNdCrSnO6,mp-1517440,1.922