pretty_formula,material_id,band_gap
Cs6Cr2O7,mp-1193081,1.6439999999999997
Ba(CO2)2,mp-732336,1.9095
Na2ZnSe2,mp-1024052,1.5452
TePCl9,mp-644827,1.7973
VOF3,mp-775981,1.5340999999999998
La2Zn2O5,mp-772609,1.5065
VBP2H5NO9,mp-24710,1.7666000000000002
V6O5F19,mp-849412,1.7201
La3TaCo2O9,mp-1223384,1.9036
NaMgTa3(PO4)6,mp-2713747,1.6818
VHO3,mp-625407,1.6339
V3Pb2O9,mp-1101267,1.7264000000000004
Tc2O5F4,mp-556442,1.8722
Ni(HO)2,mp-1274857,1.8928
LiVPCO7,mp-25421,1.8586
MgCu2SiS4,mp-1205334,1.6730999999999998
MgV2(OF3)2,mp-2217701,1.941
Y4S3N2,mp-1246909,1.5015999999999998
Na2TeO4,mp-560613,1.8126
Cs2LiCr(CN)6,mp-540847,1.5612
Ba2PrBiO6,mp-1523366,1.9086000000000003
K2TeBr6,mp-23505,1.9579
LiCoPO4,mp-758092,1.9876
LiV2OF5,mp-765917,1.842
Sn8P2O13,mp-767039,1.7037000000000004
Na8ZnSi5Ge3SO24,mp-2715656,1.648
Ca7NbSi2N9,mp-567722,1.9855
Ir(SeBr3)3,mp-1195337,1.651
K2PdF4,mp-28163,1.8732
NdScS3,mp-1105614,1.8593
AuSO4,mp-30003,1.65
Ca3PCl3,mp-29342,1.8419000000000003
CsK2CoO2,mp-551244,1.6757999999999995
CaV2O6,mp-1342904,1.5352
V8Sn16H85(C8O9)4,mp-705959,1.5383
Na18Mg8Ta16Si21(S5O48)3,mp-2712984,1.6638000000000002
SiC,mp-571298,1.960799999999999
IrCl3,mp-27666,1.897
Sr2NbFeO6,mp-1218741,1.7829000000000002
Ba2LaVO6,mp-1517555,1.7140000000000004
NaSr2NdTi4O12,mp-695514,1.8572
CrCoO4,mp-753442,1.5962
CoTeMoO6,mp-551806,1.8473
Mn(C2N3)2,mp-581026,1.5869
K(IO3)2,mp-727413,1.5374
NbVO5,mp-755692,1.7853
CrPb5O8,mp-705034,1.8799
BN,mp-1244991,1.5503
Li2TlPCO7,mp-754034,1.5182000000000002
Hg2SO4,mp-7461,1.9921
Rb6HgS4,mp-1190842,1.5950000000000002
Ca(BiO2)2,mp-1350272,1.8102
Na14Zn5Ge3(PO4)12,mp-2714119,1.8023
H3PbCI3N2,mp-1232356,1.9431
LiCo(PO3)3,mp-26015,1.7070999999999998
NaLaGeP2SO12,mp-2712754,1.5033
H2Ru6(CO)17,mp-720808,1.5791
Na5CaSiGe3P5O24,mp-2716026,1.8111
SrTiO3,mp-4651,1.8488
AgN3O4,mp-644729,1.9626
Ta2MnO6,mp-705743,1.8626
CrSO4,mp-768304,1.5224000000000006
LiAlVO4,mp-770414,1.709
LiSm4(Mo2O7)2,mp-1236208,1.5385
TiPbO3,mp-19845,1.585
Pr3CuSnS7,mp-560014,1.7779999999999996
YMoN3,mp-989604,1.5559999999999996
MgFe6(OF2)4,mp-1233442,1.8317
Er2TeS2,mp-1225541,1.77
Bi2WO6,mp-23329,1.909
MgFe4(PO4)4,mp-1234799,1.6015
Li2CoAgF6,mp-1111099,1.7043
WI2,mp-1207889,1.9578
NaSbO3,mp-752755,1.7037000000000004
PdCl2,mp-29487,1.5592
NaMg14CrO16,mp-1034602,1.8712
Mn2Ru(CN)6,mp-569321,1.9348
Li12VCr3P4(CO7)4,mp-766537,1.9837
CoH8C6(N3O)2,mp-1226333,1.5851
Li4MnCo3O8,mp-1174081,1.5487000000000002
Na9Fe2O7,mp-16398,1.6267
BaGdNbSnO6,mp-1521621,1.6839
Li2VFeO5,mp-753930,1.6432000000000002
CaMg30CoO32,mp-1038101,1.806
Na5H29(IO12)2,mp-723093,1.8001
K3Li2Nb5O15,mp-1198996,1.6586
LiVOF2,mp-1290585,1.9785
MgV2P2(O4F)2,mp-2232522,1.652
Li4V2Si(PO6)2,mp-1255615,1.9667000000000003
SbH6C(NCl2)3,mp-703545,1.5847
Li4CrFe3O8,mp-768874,1.8327
H8PtO6,mp-625111,1.6046999999999998
MgZn2AgWO6,mp-2215830,1.8204
Na4Mg3SiSnS5O24,mp-2713364,1.8447
H6PbCI3N,mp-995227,1.594
Na30Nb8Zn16Si15(S7O48)3,mp-2715106,1.5811000000000002
NaLiLa2Ti4O12,mp-40286,1.6749
Bi(Mo2Cl5)3,mp-679989,1.8924
V4OF11,mp-764086,1.5735
UTeO5,mp-1193709,1.8424000000000005
PrTl(PSe3)2,mp-1195020,1.8205
VSb(PO4)2,mp-755953,1.9271
Li3V4O11F,mp-765601,1.7753
K2Ce(Si2O5)3,mp-557649,1.9442
Na2LaNb3Si4(SO12)2,mp-2715600,1.9555
MgFe6(O2F)4,mp-2230517,1.8119
Li5Fe8(BO3)8,mp-849632,1.5931000000000002
LiLa4Ga2(FeO6)2,mp-1235627,1.8097000000000003
La4As2(S2O)3,mp-1223194,1.9121999999999997
CsK4TlO4,mp-562074,1.5380999999999998
K3Ta2S11,mp-680400,1.5662000000000005
Na3Sr7Ti7Nb3O30,mp-677709,1.7047000000000003
Fe3P4H8NO12,mp-1204707,1.7257
Ba2NdBiO6,mp-1518570,1.876
Li14Mn2S9,mp-756198,1.5171
Li2V3WO8,mp-1306034,1.5538999999999996
BaO,mp-1244871,1.6784
Sr2MgCoO4,mp-2223886,1.9611
U2H12C2Se3(N3O8)2,mp-1199440,1.8317
KVBP2HO9,mp-24827,1.7431
Na2Nb5Ga3(PO4)12,mp-2713924,1.9777
SrIn2O4,mp-540688,1.808
Li3Fe8(BO3)8,mp-849708,1.7174999999999998
Sm4AlSi5(NO)7,mp-681911,1.5404
SnO2,mp-1390618,1.9299
Li2TiFe2O5,mp-1641121,1.6700000000000004
TiBi2O5,mp-755121,1.7454
LuCuS2,mp-12457,1.6936999999999998
Hg9(PO4)4,mp-542054,1.8736
RbNaMg30O31,mp-1039970,1.6428000000000005
GdInO3,mp-1212640,1.7714000000000003
LiMnF5,mp-764354,1.652
Li4VCr3O8,mp-769605,1.5099999999999998
Li5Fe(SiO4)2,mp-759270,1.6009
Sr2MgZn2Sn2(PO4)4,mp-1234960,1.9056
Ga2HgS4,mp-4809,1.5714
CoSb(PO4)2,mp-1666719,1.5338000000000005
LiV2(CO3)4,mp-752765,1.7715999999999998
Na4MgV2O6,mp-2233531,1.8138
CsGeSbO5,mp-1203289,1.6920000000000002
Tm2MgV2O8,mp-2227841,1.6629000000000005
SnPS3,mp-4252,1.8226
La2ZrNiO6,mp-1079926,1.9201000000000008
Ca3PbSe4,mp-1227810,1.9182
NaSr3BiO6,mp-555812,1.7088
Na14Ca2Si9Ge6(SO16)3,mp-2714674,1.6572999999999998
AsS,mp-556328,1.9798
Rb2U3(IO5)4,mp-559254,1.9066
MgZn2(WO4)2,mp-2218568,1.997
Li8SeN2,mp-973793,1.7523
LiCuS,mp-753371,1.8048
VOF2,mp-776596,1.7098
WSe2,mp-1023933,1.5241
VPO5,mp-1046704,1.9224
Mo(PO3)4,mp-25988,1.8064
Na2Mg2NiH6,mp-1180690,1.7138
KLi2FeO3,mp-772421,1.5869
CaLa2Co2Sb2(PbO6)2,mp-1234682,1.7428999999999997
CrO3,mp-755211,1.8552
Rb2Fe2As2O9,mp-1200007,1.6391
Na2Nb4Si7Ge4S5O48,mp-2715773,1.6362
Na3Nb2Zn2P5SO24,mp-2716106,1.9963
P3(WO6)2,mp-780572,1.8439
Li7Fe7SiO16,mp-756994,1.6477
Te(HO)6,mp-625941,1.9116
BaY2CoO5,mp-541574,1.6802999999999997
Sr8Ga16S31,mp-532267,1.845
CaBiMoO5,mp-1044350,1.6326999999999998
Na14La6Nb2Si9(SO16)3,mp-2714935,1.9673000000000005
CsSb2PO8,mp-1197959,1.9806
Li2VSiO5,mp-766036,1.9540999999999995
MgVFe(P2O7)2,mp-1233024,1.6052000000000002
Tb2MoO6,mp-18340,1.648
S3(NCl)2,mp-27699,1.7172
Cs2Ba2O3,mp-754272,1.6482
SbH2C(O2F3)2,mp-1179607,1.7239
Li2CrCSO7,mp-768607,1.9799
Se2N3O8,mp-1209835,1.7548
La4Cu4SeS3O4,mp-1223082,1.6142999999999992
K3V2(PO4)3,mp-1022965,1.7942000000000002
Sr2AlGaNi2O7,mp-1342473,1.5629
BaLa4TiCr4O15,mp-694938,1.8816
BaTi2Fe4O11,mp-1227611,1.5525999999999995
Fe4OF7,mp-763020,1.9278
C(NO)2,mp-1214325,1.5115000000000005
Li5Fe8(BO3)8,mp-849589,1.5365000000000002
Ba2SnS4,mp-541832,1.9550999999999996
MgV3CoO8,mp-2219718,1.5343
YH16C4N9O16,mp-1178797,1.9619
Ba5Mn3O12F,mp-1204197,1.8859
MgFe3PO7,mp-2218150,1.8671
SbPb2S2I3,mp-578882,1.7237999999999998
KTa(CuSe2)2,mp-6013,1.6646
Rb2NdCuI6,mp-1110764,1.8116
VPO4,mp-1044910,1.5976
Mn2Bi3Sb3O14,mp-1221942,1.7416999999999998
Ag2H2C2N6O13,mp-1196868,1.8311
CaWO3,mp-1342410,1.9784000000000008
Fe7(PO5)4,mp-690584,1.5842
Sr4LaCl11,mp-1218463,1.8681
Fe3C9S2O9,mp-652326,1.9239
KV3O8,mp-19172,1.8135
Na2NiHgF6,mp-1111162,1.7089
Cu2H12C4Br3N,mp-1202278,1.7288
Na4Sn2H26Se6O13,mp-707327,1.7422
NaB9Se8,mp-640950,1.9422
Ba2GdBiO6,mp-1520731,1.6632000000000002
Tl2PSe3,mp-28394,1.5420999999999996
HoMg(WO3)2,mp-1041135,1.9251999999999996
Na2Sn3O7,mp-2646915,1.6767000000000003
LiVAsCO7,mp-756295,1.7254
MgPH6NO5,mp-1210838,1.9546
RbZrCu3Se4,mp-1179676,1.5439999999999998
Ba3PtF12,mp-1214989,1.5128
RbAuCl4,mp-569442,1.9363
Sm2MgCr2O8,mp-2215815,1.6323
Nd4Cu2O7,mp-556595,1.5191999999999997
Na5CoHO4,mp-774341,1.5973000000000002
BaZnTe2O7,mp-1191811,1.6684
Ti3PbO7,mp-504427,1.9829000000000003
LiVOF3,mp-765521,1.7905000000000002
SmTl(PSe3)2,mp-1105449,1.5815000000000006
MgCuAu2,mp-1097319,1.6646999999999998
BaSr3Ti4O12,mp-1227688,1.7434000000000005
Li2Mn2OF4,mp-759996,1.6239
FeBiO3,mp-645159,1.5419999999999998
Ta3AgO8,mp-849326,1.7546
LiV(PO3)4,mp-758085,1.9153
Zr2N2O,mp-776271,1.5091000000000006
CsLiMg30O31,mp-1098505,1.9439
KPrNb4O12,mp-1519012,1.6235
C3OF2,mp-1214145,1.7061000000000002
Cd(GaO2)2,mp-3443,1.5793
Tl2SiSe3,mp-14241,1.6828
C3NClO,mp-729919,1.7645
KMnP3HO10,mp-1640489,1.5610000000000002
Na2Y2Ga2SiS5O24,mp-2715585,1.5495
Na4Ti4Si3O22,mp-1202866,1.8712
Na6Ti2Zn6SiS11O48,mp-2712820,1.5179999999999998
Li2SnH14Se3O7,mp-1195382,1.9732
Sr2CrO4,mp-19514,1.6753
Na15W7N19,mp-1030704,1.6348000000000005
Sr(InSe2)2,mp-21733,1.5637
Na4VP2O9,mp-705037,1.7839
Cs2Sn3(SbS5)2,mp-1195304,1.8595
Ba2H6Pt,mp-643253,1.7589
Mn(HO)2,mp-626701,1.7280999999999995
Ba3Sc2N4,mp-1246130,1.5494000000000003
Na4V3O8,mp-765721,1.7942999999999998
ErFeC6(N3O2)2,mp-1199768,1.7405
InRe4C14I3O14,mp-1200518,1.6973
BaNaCeSbO6,mp-1520760,1.8811000000000004
Li4Ti15O32,mp-759678,1.9439
KIn5S8,mp-1223488,1.5349000000000004
CaV(Si2O5)2,mp-1043605,1.9167000000000003
Mg2TaVO6,mp-1348043,1.5259999999999998
Na4Ti2Ga2Si3(SO8)3,mp-2713696,1.615
Na6Ca4Ta8Si9(SO8)9,mp-2713442,1.7361000000000002
Li4Ti3Ni2Sn3O16,mp-753836,1.7728000000000002
Li2Ti2CoO6,mp-757277,1.935
Bi2WO6,mp-23480,1.6037
Na4ZnSiSn(PO6)2,mp-2714367,1.9873
I3NO9,mp-1194757,1.7109
Mn5H8SO12,mp-1196354,1.8172
SnS,mp-554134,1.668
Na5SbO5,mp-759876,1.6535999999999995
Cs2Hg3(GeS4)2,mp-1213712,1.7759
LiVO2,mp-1282211,1.5650999999999995
Os2C6SO6,mp-662792,1.9976
Nb(SCl)2,mp-27362,1.5101999999999998
Sr2LiReO6,mp-1080625,1.8424
Er2MgS4,mp-1232158,1.6235
ZnSnO2,mp-1369243,1.5469
BaDyFe4O7,mp-1192895,1.7414
Na4Fe2O5,mp-19396,1.8705000000000005
GaSe2NCl6,mp-567956,1.5667
AlTeI7,mp-29407,1.8846
Na2Zn5Sn3(SO4)12,mp-2714892,1.5830000000000002
LiV(SiO3)2,mp-765346,1.9357999999999995
Li2MnOF2,mp-753929,1.5452
Li2CrP2O7,mp-754619,1.9725
CsGdSiS4,mp-630711,1.749
SnO,mp-1078644,1.6427000000000005
CsPSe6,mp-1225967,1.6167
Li4FeOF5,mp-759422,1.5509999999999995
LiCrSiO4,mp-753086,1.7818999999999994
Na6Y4Nb4Si7S5O48,mp-2713032,1.7223
KYMg14O16,mp-1035962,1.8842
Li5Fe3Co2(PO4)6,mp-758132,1.9142
MoH8S2(NO)2,mp-24234,1.979
Er2Sb2O7,mp-772137,1.7512
Se,mp-570481,1.6545
Rb8Mg(FeO4)2,mp-2230640,1.6079
Zr2N2O,mp-775861,1.6810000000000005
Cs3PSe4,mp-583193,1.8309
Na2W4O13,mp-32533,1.8085
La3ReO8,mp-504831,1.8714000000000004
Na3MgNbSi(PO6)2,mp-2715491,1.7069
Na5Zn3GeP3(SO8)3,mp-2714658,1.6034
Fe4OF7,mp-881173,1.5281
Fe7(OF3)3,mp-781010,1.845
LiFe4(BO3)4,mp-757684,1.5541
Ba(LuS2)2,mp-984052,1.7477000000000005
BaSO2,mp-696582,1.5130000000000003
CdSb6(S2I)4,mp-560411,1.5565000000000002
AlFe3(SiO4)3,mp-1250723,1.9770000000000003
MgGe2WO6,mp-1043326,1.9874
Li2CeO3,mp-754534,1.9757
MgAlCu(WO4)2,mp-2219878,1.511
K3Nb3(BO6)2,mp-15248,1.9206
Sb2IBr2F11,mp-560928,1.6859000000000002
BaSrLaBiO6,mp-1520716,1.9177
Sr5Ti8O21,mp-1202462,1.8658
LiTiCrO4,mp-1222347,1.89
P2O5,mp-1245218,1.7508
Ba2MgV2(Si2O7)2,mp-1233916,1.9509
Mg3V6Cd2Cu3PbO24,mp-1222758,1.6862
Ce2Dy2O7,mp-673848,1.6279
Na2Nb3GaSi4(SO12)2,mp-2715698,1.9232
Na2Y2Nb6Si7S5O48,mp-2715574,1.8603
Re6Se7Br4,mp-1219630,1.6949
VCdAgO4,mp-541708,1.8437
CsCuF4,mp-540921,1.5436
BaMg(FeO2)4,mp-1044425,1.6564
AgMo3(PO7)2,mp-17427,1.9584
Mo3P2PbO14,mp-1200601,1.5159999999999996
Mg3P2,mp-2514,1.6067999999999998
MgFe3(PO4)3,mp-2230850,1.8432
Hf2N2O,mp-780075,1.9925000000000008
LiAuC4S4(OF)12,mp-1201845,1.5318
MgTi3Pb5WO15,mp-694933,1.6852999999999998
CsTaO3,mp-1185552,1.8627
Ca(WO2)2,mp-1047711,1.5520999999999994
V4O5F7,mp-755181,1.5045
BaGe2O5,mp-28288,1.8132
K2In2P3Se10,mp-1199715,1.5675
Hg2TeBr3,mp-570125,1.8821
Li3V2(PO4)3,mp-1202865,1.9273
CaV4(AgO6)2,mp-16967,1.9174
W(OF)2,mp-759856,1.7757
Ca2Mn2V3AgO12,mp-532537,1.8921
ZrNCl,mp-542791,1.7226999999999997
Pb(SN)2,mp-726750,1.7084
YCr3Se2ClO8,mp-1048488,1.7814
VIO7,mp-1208109,1.6888
K2LaNb5O15,mp-559549,1.8326
Y2MgSe4,mp-1232199,1.5703999999999998
NaV(PO4)2,mp-759218,1.6197
Sr2MgCo2O5,mp-2217124,1.5248999999999997
La6Cd(SiS7)2,mp-1223157,1.9468999999999996
Li24Ti11CrO36,mp-779361,1.5560999999999998
Li2Mo(PO4)2,mp-540296,1.5303
VO,mp-1287184,1.9785000000000004
K3Ag9(SbS3)4,mp-1224211,1.6252999999999995
LiV2F7,mp-756227,1.8395
KNb5Pb2O15,mp-1224036,1.7623000000000002
Na14Ca2Ti6Si9(SO16)3,mp-2714815,1.5428000000000002
Li4NCl,mp-29149,1.7617
Ca3Sn2S7,mp-866869,1.7828000000000004
NaMo3P3O16,mp-505102,1.7417999999999998
K3Nd(AsS4)2,mp-559059,1.6896
Na5AgGe2S7,mp-1194446,1.7581999999999998
Ho2MgS4,mp-1232270,1.9659
MgFe4(OF)4,mp-2218495,1.5959
BaSrLaBiO6,mp-40802,1.8732
Sr(TmS2)2,mp-1194307,1.8435
CdGeO3,mp-685935,1.5058
LiVPHO5,mp-753560,1.8043
CoGeO3,mp-550220,1.5622999999999996
KVSO6,mp-554334,1.8687
V2OF5,mp-764357,1.7996
Sr(PrSe2)2,mp-37859,1.7496999999999998
Ba3UIn2O9,mp-1228397,1.5562
MgV2Bi4O11,mp-2229643,1.6564
LiAgF2,mp-752525,1.5528
MgAsWO5,mp-1047240,1.9494
Mg2Ta2CrO8,mp-1663786,1.7933000000000003
Sr3UIn2O9,mp-1218755,1.6343
Ba5Pt2O9,mp-29787,1.9294999999999995
USiPbO6,mp-726051,1.7855
La6Sb4(SO4)3,mp-1223262,1.9578999999999995
LiB6S4(Cl3O4)2,mp-1196966,1.5094
Ca4GeN4,mp-29808,1.5739
LiMnP3HO10,mp-1298635,1.8498
Rb5GaO4,mp-1020613,1.8405
Na2NbGa3Si2(SO6)4,mp-2712620,1.7502000000000002
Na3MgNbSi2SO12,mp-2714404,1.5882999999999998
BaMg30SnO32,mp-1095706,1.647100000000001
NaMg14BO15,mp-1034744,1.9427000000000003
V3(H3O5)2,mp-1179176,1.82
Na5La3TiSi3(SO8)3,mp-2713143,1.7487
MnGaFeO4,mp-1221831,1.5104000000000002
BaBr2O11,mp-1193601,1.9657
RbMg30BO31,mp-1039725,1.7878999999999996
K2Mg(CoO2)2,mp-2222888,1.7828
Rb4Mg(FeO2)4,mp-2228930,1.6866
Tb2MgMo2(ClO4)2,mp-2232107,1.7374
MgSbO3,mp-1347225,1.9971999999999996
Ba2CaV2(Si2O7)2,mp-1233426,1.7710999999999997
Ba2As6O11,mp-675757,1.7849000000000004
V6O5F19,mp-850925,1.7300000000000002
Na5Fe3Ag2(As2O7)4,mp-1220973,1.8185
BaFe4Sn2O11,mp-1229071,1.6971000000000005
Na5MgTi3SiP5O24,mp-2714047,1.9443
Li2CuPO4,mp-762111,1.8063
KNaTe,mp-8755,1.9491
BaSr3Lu2(BiO6)2,mp-1227748,1.8294
Ta2MnO6,mp-753736,1.8594
Er3CuSnS7,mp-1191604,1.6421
V2OF5,mp-764744,1.5114
Mg30VZnO32,mp-1037563,1.9319999999999995
ScGeP(SO6)2,mp-2712908,1.7396
Na3CoO3,mp-1176353,1.8614
K6CdTe4,mp-17698,1.6614
NaAgF4,mp-7386,1.5463999999999998
Sr2Mg(AgO2)2,mp-2228172,1.849
Na2LiCaVP2O9,mp-759615,1.7406
Cs3BAsP,mp-1229098,1.8444
Li3Sn(BO3)2,mp-770286,1.5029
Ba3SrMg2(TeO6)2,mp-1228054,1.9849999999999997
K6Na2V2S7O30,mp-704360,1.56
SrMgNiH4,mp-643293,1.8124
Rb2NaTlCl6,mp-989563,1.8121
Mg2(TeO3)3,mp-768893,1.7748
Nb3In(PO4)6,mp-2713927,1.8554
YSnP(SO6)2,mp-2712935,1.7308
CaP4(Br3O)4,mp-1233077,1.6072
Y5Be6Fe3(SiO5)6,mp-1266607,1.8422
H2C3,mp-995217,1.9102
Na2Ca2Zr2MnFeSi4O17F,mp-1221915,1.7381000000000002
MgFe4(OF)4,mp-2218351,1.952
K2PtN4(ClO4)2,mp-669540,1.9353
ZnS,mp-1200836,1.9881
TaAl(WO4)2,mp-1047653,1.8682
K2Mn3V2(HO5)2,mp-762295,1.6717
ZnCo(GeO3)2,mp-1043196,1.6158
LiMnVO4,mp-861234,1.7173000000000005
H5IO6,mp-625890,1.6184
Li5SbS4,mp-775817,1.5475
Na3VPCO7,mp-771332,1.8839
V3ZnO8,mp-27284,1.6574
NbBi3O7,mp-34036,1.6458000000000004
Li2V2(SiO3)3,mp-1267368,1.7510000000000003
NbGa(SnO3)2,mp-1518242,1.9471
SrCaSmBiO6,mp-1523189,1.7824999999999998
CaTe2O7,mp-1042174,1.9045
BaU11(GeO19)2,mp-1182767,1.6020999999999996
SiC,mp-1200692,1.9692999999999987
Ba2V3O9,mp-32531,1.5728
CsCdBO3,mp-1191636,1.6462
LiLaTi2O6,mp-767402,1.5183
VP2H4NO7,mp-1197105,1.9755
MgMoP2O7,mp-2217620,1.9738999999999995
Li2VPCO7,mp-770949,1.9669
Rb3DyO3,mp-778968,1.9348
Li3MnCoO5,mp-1174101,1.6226
Mg2Ta2VO8,mp-1046091,1.6662
Ba5Re3IO15,mp-1214601,1.9989
PBr2,mp-1209830,1.7542
LiVF4,mp-1176534,1.8773
Nb3Ga(PO4)6,mp-2714005,1.917
Rb4P2PbSe8,mp-863033,1.6700000000000002
CoP2H17N4O9,mp-728003,1.8875
K12In2Se9,mp-570411,1.646
LiFe2(PO4)2,mp-757359,1.5209
Na18Ca4Nb20Si27(SO16)9,mp-2712918,1.6525
Li8VO6,mp-1176805,1.6063999999999998
Cs2U(N2O7)2,mp-1213728,1.7307
V4O5F7,mp-1101221,1.5429
Ce4SnO10,mp-1226854,1.8258
H24PdC8(NCl2)2,mp-707284,1.8282
MgV2CdO6,mp-2217121,1.7620000000000005
Ba2LiV2(Si2O7)2,mp-1235820,1.5163000000000002
K2YCuI6,mp-1110942,1.8261
FePH12(CCl)4,mp-1194875,1.5822
LiFe4(BO3)4,mp-761225,1.7979
FeF4,mp-1396678,1.6505
Os2(CO)7,mp-28636,1.9918
RhC2ClO2,mp-654105,1.7196
Li3MnB6O13,mp-779068,1.9312
ZnCr(SiO3)2,mp-1041856,1.9763
MgCr2O4,mp-2225849,1.9693
Rb2SnSe3,mp-9145,1.6655
Co2H36Pt3(NCl)12,mp-1195200,1.7355
Li4Mo3O8,mp-566257,1.5854999999999997
UH2Cl2O3,mp-1217058,1.9788
RbB6S2(Cl3O2)2,mp-1201123,1.816
Ba3(AlN2)2,mp-17133,1.5661999999999998
K8Li13(FeO4)4,mp-759598,1.7423999999999995
Si2H2O3,mp-1261785,1.9737000000000005
Li4V2Si(PO6)2,mp-770404,1.8049
CsBr2F,mp-28650,1.7763
LiNb(TeO4)3,mp-754519,1.5556
CaMg30SiO32,mp-1038016,1.8760999999999992
LiV(SiO3)2,mp-559840,1.7254
MgCo6(OF5)2,mp-1233477,1.8674
AsS,mp-542604,1.9738
Ho2MgV2O8,mp-2227384,1.5759000000000003
KMnO4,mp-19046,1.6493
K2PtS15,mp-652663,1.6801
La2S3,mp-32906,1.9201
Na2W2O7,mp-21896,1.8376
Na42Ta8Zn16Si21(S5O48)3,mp-2715747,1.5532999999999997
NiB18(H11C2)2,mp-705569,1.5217
SrMg6CdO8,mp-1033445,1.5498000000000005
Cr8Bi4O29,mp-744682,1.6625
BaSnS2,mp-12181,1.638
WO3,mp-18773,1.6254
TmCrO3,mp-1187577,1.9289
Ni(HO)2,mp-626843,1.9909
TlCr3O8,mp-561221,1.8267
Be3V2(SiO4)3,mp-1047935,1.6241999999999996
LiCuS,mp-853967,1.6982999999999997
BaMgNiF7,mp-1047912,1.6007
MoF5,mp-1379489,1.926
Li3V2(PO4)3,mp-26903,1.8138
Ca4Co5(TeO6)3,mp-1046609,1.5187000000000004
Rb2S,mp-8041,1.9632
InGeP(SO6)2,mp-2712909,1.8968
RbMgCoF6,mp-1219588,1.9239
Ga3NO3,mp-754781,1.6791
U(HO2)2,mp-626864,1.5566
CsFeO2,mp-1080749,1.976
CoSb(PO4)2,mp-1647282,1.899
Rb4Cu5Cl9,mp-1201389,1.6096
H8W(S2N)2,mp-697283,1.9874
Mg2FeH6,mp-23804,1.914
BaMnO3,mp-1205336,1.8948
CuH18C4N10(ClO)2,mp-721789,1.5332
K2P4PtWClO10,mp-1212425,1.7432999999999998
KMnAg3(CN)6,mp-571384,1.544
Hg3(PS4)2,mp-1212489,1.6085999999999998
Ag2Mo2O7,mp-560276,1.8834
FePO4,mp-1225011,1.6047
LiAuS,mp-29829,1.5804
B8PH24RhC7,mp-1196243,1.6749999999999998
AlAs,mp-2172,1.5036999999999998
Fe2Te2W(CO)10,mp-559754,1.8716
Ba3Fe2TeO9,mp-1228445,1.7012999999999998
VOF2,mp-781604,1.5129
BaNaPrSeO6,mp-1520242,1.9163000000000008
UV2O8,mp-541493,1.8164
PI2,mp-29443,1.9267
Li5SbS4,mp-776268,1.6744
CsVTeO6,mp-1225864,1.7666
LiFeSiO4,mp-863368,1.9093
Li7Mn(O2F)2,mp-1376868,1.6323
Sb2H20(Cl4O3)3,mp-696088,1.6880000000000002
La2MgSe4,mp-1232037,1.8169000000000004
Li2FePCO7,mp-1177947,1.7891
LiMn3H6(SeO3)8,mp-1196748,1.6130999999999998
Li4Fe3(BO3)4,mp-766514,1.6565
Zn3Cr2(GeO4)3,mp-1328221,1.9408
Ba2GdBiO6,mp-1520715,1.5940999999999996
Li2Ti3CoO8,mp-1664613,1.966
Pr2PbSe4,mp-675146,1.6586999999999996
Na3MgMo(OF)3,mp-2240160,1.9528
Cs2LiInBr6,mp-989405,1.5789
Sr2TaCoO6,mp-1208733,1.5498999999999996
Sr2LuBiO6,mp-23100,1.978
Na3Mn2BO6,mp-1221286,1.9649
CsAu2F7,mp-554737,1.7961999999999998
Cs2KMoBr6,mp-1112871,1.6085
Si3Sb5N9,mp-1245610,1.5473999999999997
LaFe5Bi4O15,mp-1223688,1.5941
Li4TiCo2Ni3(PO4)6,mp-778251,1.7799
UC4S2(NO5)2,mp-1197465,1.7968000000000002
Sr2FeWO6,mp-19266,1.7683999999999995
Ba2NdBiO6,mp-1518355,1.7565
LiBi2BO5,mp-768636,1.731800000000001
CaMg6CoO8,mp-1032957,1.7251000000000003
CsMnVF6,mp-1225934,1.8989000000000005
La3ReO8,mp-28121,1.5225999999999995
RbVSO6,mp-642398,1.8148
Na8Ca3TiSi3(SO8)3,mp-2714952,1.5128
Na14Mg4Ti4Si7S5O48,mp-2715560,1.5184000000000002
Rb3Cu5O4,mp-8198,1.5344999999999998
YPO6,mp-1207740,1.7266
RhPb2F7,mp-14276,1.7702
LiVP2O7,mp-758422,1.9221
MnPtF6,mp-557668,1.8416
BaSn2S5,mp-1202711,1.5453
BaGdCl5,mp-29538,1.9979
ThSnI6,mp-28815,1.98
LiFeCO4,mp-757939,1.962
LiCd4Ge5HO15,mp-24405,1.8714
FeB6(CO)4,mp-818725,1.5716
MgCr6O16,mp-2223528,1.6019
FeBiO3,mp-1193035,1.6433
CuN3,mp-504768,1.6330000000000002
LiNiRhF6,mp-1222366,1.6961
NbAgO3,mp-1203481,1.7362000000000002
Rb4Cl2O,mp-38099,1.5163000000000002
Zn(FeO2)2,mp-34425,1.5701
Na8Mg(FeO4)2,mp-2231632,1.6302
MnO2,mp-25275,1.5739
LaFe5Bi4O15,mp-1223162,1.7804000000000002
Cd2PCl2,mp-31276,1.5027
Cs3Ho7Se12,mp-1227054,1.5043
Sr2NdVO6,mp-1522778,1.6477000000000004
GePbS3,mp-624190,1.7578999999999998
MgV28O70,mp-2236764,1.578
CsI3,mp-22876,1.9164
PbO,mp-672237,1.537
NbO2F,mp-39025,1.6515
SbSI,mp-973217,1.5064000000000002
Cu3P8(S2Cl)3,mp-559558,1.7878000000000005
La10S14O,mp-561194,1.9411
MgFe6O7F5,mp-2230521,1.6576
Li2Cr5(Si2O5)6,mp-765349,1.6612
KHgC3(SN)3,mp-622196,1.8239
Fe4OF7,mp-1178280,1.9109
K2Sm2Mg(MoO4)4,mp-1233579,1.5419999999999998
LaCuSO,mp-6088,1.668499999999999
CsNaTe,mp-5339,1.9696
Fe2O3,mp-542896,1.5251
Li2VPCO7,mp-25402,1.7576
VH6(OF)3,mp-1178817,1.991
VOF,mp-754016,1.5280999999999998
K4Au6S5,mp-29341,1.5841999999999998
Hg3AsS4Br,mp-555074,1.5311
CdPdF6,mp-13984,1.7751
LiCoP2O7,mp-26197,1.8192000000000004
Ba2MgCoWO6,mp-2218102,1.852
Sm3MoO7,mp-705801,1.7639
BaLi2NiO3,mp-775974,1.762
H8C2I3N,mp-568713,1.9774000000000005
Li3V2(O2F)2,mp-1567479,1.535
Nd3CuSiS7,mp-556975,1.6357
CsZnCoF6,mp-1225874,1.6216
CaLaFeSbO6,mp-1043864,1.9744
NaV3P2O13,mp-776555,1.8241
Li7Y7ZrS16,mp-754856,1.6790000000000005
Cs2MoO8,mp-1213774,1.9751
Zr2Sb2Pb4O13,mp-1215826,1.8279000000000003
Na9Nb5Zn(SiO4)9,mp-2715373,1.9305
TlGeS2,mp-3075,1.7578999999999998
Sr2NdBiO6,mp-1518321,1.862
Cd(HO)2,mp-625094,1.6967
Bi25BO39,mp-759766,1.8929000000000005