pretty_formula,material_id,band_gap
Li2AgF3,mp-759198,1.8653
Na5Mg2Ge2P5SO24,mp-2715032,1.7700000000000002
BaSrDyBiO6,mp-1516726,1.856
TlV2I3O13,mp-1198439,1.8488
LiVF5,mp-767769,1.5724999999999998
KGeAuS3,mp-554859,1.9974
NiSb3XeF23,mp-1195453,1.6092999999999995
CsKMg30O31,mp-1040406,1.7546
SiC,mp-570985,1.942400000000001
Li3Fe2(PO4)3,mp-26825,1.9116
PCl5,mp-23228,1.7945
VH10S2(NO4)2,mp-1100920,1.7481
Na6Ti4Si7Sn4S5O48,mp-2712930,1.6596000000000002
Hg(AuF4)2,mp-29170,1.5738
LiMn(PO3)3,mp-758612,1.9429
Ba2TeO,mp-1078191,1.783
NaCr2FeO8,mp-1210261,1.7069
Ho2O3,mp-1223904,1.517
LiFe2(BO3)2,mp-759237,1.5182000000000002
K2CaNi(NO2)6,mp-22650,1.7049
Na2Ti3Zn5(SO4)12,mp-2714687,1.6793
Cs2TlInBr6,mp-996944,1.8255
TiO2,mp-1044853,1.7851
Ba6LiNb2Ir(ClO6)2,mp-1232980,1.5718
Li5NiOF5,mp-1273264,1.9919
MnSi7N10,mp-1246278,1.5520999999999994
Cd(CoO2)2,mp-754042,1.6511
Cs2PrCuI6,mp-1112883,1.7763999999999998
CsFeO2,mp-1201612,1.9752
BaNb2(FeO3)4,mp-1021950,1.7345000000000002
K3MgSbS4,mp-2224173,1.7434999999999998
Na18Ta16Zn8Si21(S5O48)3,mp-2712961,1.5977
SnO2,mp-1384340,1.8492
V3Pb2O9,mp-1208138,1.8042
LiV(PO3)4,mp-26865,1.9003
LiV6F13,mp-760005,1.9781
MgV2CoO6,mp-2217128,1.6281999999999996
H2Os4Pt(CO)15,mp-740758,1.8919
MgFe4O5F3,mp-2241182,1.5643999999999996
Na2MgTi3P4(SO12)2,mp-2712753,1.8015
Mg14MnFeO16,mp-1036237,1.7607
UTe3Pb2O11,mp-559937,1.5886999999999991
MgTi2Pb4WO12,mp-1222091,1.9324000000000003
CrB3(HO3)3,mp-778931,1.778
MgV2ZnO6,mp-2217228,1.7794000000000003
Li8CrO6,mp-780493,1.7651999999999997
CaSi2WO6,mp-1041992,1.5759
Mg(SbO2)2,mp-1044623,1.9365
HgSBr,mp-721815,1.5473
Tl3VS4,mp-5513,1.9554
LiVBO3,mp-756785,1.5335
Rb2NbAgSe4,mp-662241,1.7691
Al2Ag2Bi2S3Cl8,mp-1194539,1.9032
K3RhCl6,mp-28837,1.7025
NaTaSi3Ge3(SO8)3,mp-2713765,1.978
GaHO2,mp-673402,1.6336
Li2VCrO4,mp-754029,1.7728000000000002
Na15Ca7Nb5(PO4)18,mp-2713476,1.8972
Ca2FeWO6,mp-1048318,1.9888000000000003
Ba4Zr3TiO12,mp-1228038,1.7076000000000002
LiMnO4,mp-19438,1.5169
TiCrSO8,mp-1101433,1.7157999999999998
K3NiO2,mp-505153,1.632
NaScSiSn(SO6)2,mp-2712559,1.8201
Ce2Y2O7,mp-38950,1.6482
RbMg14BO15,mp-1034374,1.7464000000000004
Na21Ca8Nb4Si3(P5O24)3,mp-2715746,1.8322000000000005
Na2CeO3,mp-673702,1.9759
Na6La4Ti4Si5S7O48,mp-2715862,1.5276000000000003
LiV(CO3)2,mp-753587,1.761
MgV2Zn2(SiO5)2,mp-2215850,1.8600000000000003
Na4CaNbSi2PO12,mp-2716257,1.7744
MnH8SN2O4F3,mp-1203692,1.5799999999999998
La2GeS5,mp-622086,1.9676
Ho12Si5S28,mp-1224521,1.7024
Ti5ZnBi2(Pb2O9)2,mp-695325,1.9482
FeP3H18C6(SO)6,mp-746355,1.7519
Li5NiO4,mp-778478,1.5215999999999998
Ca2CoAs2(HO4)2,mp-1214418,1.8722
MoPNCl6O,mp-649091,1.9153
Li3CoO2F,mp-760264,1.8001999999999998
SnH16Se3N7,mp-1201828,1.717
BaSrTbWO6,mp-1518820,1.7994
MgP4H24(NO)8,mp-1233682,1.9381
Ba2NdMgSbO6,mp-2240747,1.6060000000000003
Li3NbS4,mp-769038,1.7839
Er2MgV2O8,mp-2218493,1.6770999999999998
Cs2Se,mp-1011695,1.7952
LiTb4Al2(FeO6)2,mp-1235259,1.6005000000000005
Li3RhF6,mp-1111070,1.8808
MnFeH4O2F5,mp-504945,1.6982
Sr2BiSbO6,mp-1518359,1.6981000000000002
ZnS,mp-1200568,1.9999
MgZn2(CoO3)2,mp-2218045,1.8660999999999996
Zr2N2O,mp-776260,1.6504
Sr6Mg(Te4O11)2,mp-1233607,1.8441
Al2Te3,mp-29502,1.7992000000000004
K2CeCuCl6,mp-1112237,1.5332000000000003
KRb2AlI6,mp-1114183,1.7559
BaSm2Ti3O10,mp-1197030,1.9530000000000003
Li2Cr(BO2)5,mp-772433,1.9858
VOF2,mp-778670,1.5121
ZnGeN2,mp-2979,1.6955
Sr2AlSbO6,mp-1208835,1.8987000000000007
NaTl2RhF6,mp-14037,1.7848000000000002
BaDyNbSnO6,mp-1516561,1.9704
MgSe2,mp-1103590,1.9685
K2TeSe3,mp-28419,1.7896
Li4Cr3CoO8,mp-1177445,1.7071999999999998
Na3BP2,mp-29370,1.8451
La3SiN3O2,mp-1223119,1.6782000000000004
LiAgF2,mp-752549,1.6547999999999998
LiCuCO3,mp-759640,1.5463
CaFe2(SiO3)4,mp-1171010,1.8921
CaNiMoP2O9,mp-1043759,1.6824000000000003
Ba3La2Ti3Cr2O15,mp-684820,1.5316
Ba4Na(SbO4)3,mp-6273,1.5158000000000005
InSb2S4Cl,mp-556541,1.5524999999999998
NaUBO5,mp-557744,1.9304
MgMn2(FeO2)4,mp-2232141,1.5497000000000003
Li2Mo(PO4)2,mp-26863,1.6269
Ti3Fe2Ni(PO4)6,mp-775987,1.9837
B2Pb2S5,mp-662553,1.6624
Li2Fe7(OF2)4,mp-761205,1.6906
Li10Ti11Nb6O42,mp-767498,1.8835
BaSrSmVO6,mp-1517230,1.6407000000000005
OsC3I2O3,mp-616196,1.7956
Li2AlFeO4,mp-772430,1.8799
V3(PO4)2,mp-770844,1.7588999999999997
Al2Fe3(BiO4)3,mp-1229137,1.7816999999999998
BaGdFe4O7,mp-1193020,1.6574999999999998
H13RuC6SN4O8F9,mp-1203926,1.9685
Fe2O3,mp-1181824,1.6876999999999998
KInCl3,mp-1112170,1.5970999999999995
Zn2As2O7,mp-754262,1.7632
KCoPH2O5,mp-643954,1.6258
Tb2MgMo2(ClO4)2,mp-2232185,1.763
Bi2O3,mp-684747,1.6863
ZnGaPS,mp-1215443,1.6700000000000004
Na14Ca2Si9Sn6(SO16)3,mp-2714635,1.6785000000000003
DySeO3,mp-769393,1.7860999999999998
MnVBiO5,mp-558892,1.9709000000000003
SbSeCl7O,mp-572726,1.945
TmCuS2,mp-12455,1.6576000000000004
ZnS,mp-1201781,1.9874
LiV(CO3)2,mp-757720,1.897
Na6ZnO4,mp-7664,1.5336
K2LiNb6(PO8)3,mp-781788,1.8622
PbS,mp-2350391,1.7097
MoH8(S2N)2,mp-1199487,1.7787
Li2FePCO7,mp-753770,1.911
NaZnSnP(SO6)2,mp-2714503,1.8629
Li2VOF3,mp-757787,1.8385
Lu2Mn(GeO3)4,mp-1222837,1.9777000000000005
Li2Cr(SiO3)2,mp-1261497,1.9897
SeBr,mp-540943,1.7553
NbCrO4,mp-772660,1.5753999999999997
Na4Si2Te5,mp-569337,1.8779000000000003
Na2ThTi3O9,mp-1221270,1.8606
NaNbO3,mp-1977728,1.6644
Ca2Ti6N2O11,mp-776452,1.8035
Sn13(O5F3)2,mp-760170,1.8468
CaTe,mp-569170,1.6323000000000003
V3(H3O5)2,mp-1179245,1.9494
LiIO4,mp-757089,1.87
K3Sb7(SO3)3,mp-559272,1.834
BaTeH3(S2O3)2,mp-1214721,1.864
BaNaSr3(SbO4)3,mp-1227913,1.9361
Cs4SiTe4,mp-574224,1.8366
MgVFe(P2O7)2,mp-2216172,1.8205
Sr(BeN)2,mp-11919,1.6078999999999994
Zn2W3O8,mp-1378118,1.8086
NaBrO2,mp-734013,1.9825
Mg14MnNiO16,mp-1036266,1.9753
Mg3CdO4,mp-1099255,1.8327
Ga4Hg11(PCl4)4,mp-1203087,1.7188
MgV2(PO4)2,mp-1040887,1.9825
Na4Zn3S5,mp-1024070,1.9102
K2PrNb5O15,mp-1211647,1.8979
BiW2(Cl4O)2,mp-1193947,1.6948
Ag3SbS3,mp-555269,1.5142000000000002
Ge2SeN2,mp-1247419,1.6955
MgCrFeO4,mp-1222047,1.7536
Sr2SmBiO6,mp-1208755,1.8088
MgCr2(ClO)4,mp-2223069,1.5918
Na3MgGe(PO4)3,mp-2715435,1.9817
NaNdSe2,mp-999471,1.8121000000000005
CaMn(GeO3)2,mp-1043484,1.6037000000000003
Sm9Al(SiS7)3,mp-1219290,1.9825000000000004
MgU(MoO4)4,mp-1210945,1.8038
NaLaTiP2SO12,mp-2712747,1.8359
Ta3O7F,mp-753747,1.9542
Na3NiO2,mp-776961,1.5896
LiVF4,mp-752465,1.7881
TaVO4,mp-755190,1.5845999999999996
La3CuGeS7,mp-582767,1.7961
IClOF,mp-558330,1.7840000000000005
LiMnBO3,mp-831163,1.9592
Na4NbZnSi2PO12,mp-2715754,1.7332999999999998
LiAlCoO3,mp-755925,1.9805
Li2VFeP2(HO5)2,mp-760258,1.646
Nd3CuGeS7,mp-554150,1.6757999999999995
Na9Mg5NbSi3(SO6)6,mp-2712587,1.5555
La2CN3Cl,mp-567756,1.8792
Na2VBAsO7,mp-773190,1.5444
SbOF,mp-989191,1.858700000000001
Li4MnCo2O7,mp-1174639,1.6921
Na4ZnSe3,mp-1094105,1.7299
LiVOF2,mp-759785,1.6168000000000002
FeAsO4,mp-19398,1.6305
WO3,mp-19033,1.657
Na6MgSi4Sn3(SO12)2,mp-2714471,1.5613
Li6NiOF6,mp-753283,1.8946
Na6Zr4Si7Sn4S5O48,mp-2712859,1.5203999999999998
Si(Sn3O4)2,mp-556100,1.8998
LiYSe2,mp-15794,1.5238999999999998
Na6Mg3Si2Ge(SO6)4,mp-2712786,1.6824999999999997
Rb2NaMnO4,mp-18873,1.8116000000000003
Li4V2Si3O10,mp-766379,1.8135000000000003
Gd3NCl6,mp-651160,1.9483
Ba9Nb2CN10O,mp-560022,1.7837999999999998
NaBrO2,mp-1180168,1.9541
Ba2NbFeO6,mp-1021504,1.5316
AlAg(PSe3)2,mp-1228964,1.6205999999999996
Sr22Nb10O47,mp-685295,1.7082999999999997
Na9Nb2Zn4(PO4)9,mp-2715315,1.8944
KAuSe,mp-9881,1.816
LiLa5Ti8O24,mp-560293,1.9695
CaCo6(OF5)2,mp-1234346,1.7866
Ba2MgNiMoO6,mp-2217752,1.7007
Li2TiNi2O5,mp-770852,1.5476
Li6Fe5WO12,mp-752576,1.6384000000000003
Cr(SiO3)2,mp-1042355,1.6727999999999998
Li4Cr3CoO8,mp-1305983,1.936
NbAlBr8,mp-1105368,1.5329
Ti2CoO5,mp-753066,1.7405
NaCa2Ti2PS5O24,mp-2714239,1.7827
RbCr3O8,mp-30547,1.5565
Li4FeSb(TeO6)2,mp-755913,1.6130999999999998
Li4VF8,mp-753340,1.9347
Li9Mn2Co5O16,mp-1175637,1.5471
Na3Mg2(WO4)3,mp-1210564,1.9871
Dy4Te3N2,mp-1201962,1.8172
Na4Ca2Ga2SiS5O24,mp-2713474,1.8432
CdSbS2Br,mp-559588,1.5284999999999995
Rb2Zr2O5,mp-862664,1.692
Ca7GeN6,mp-570555,1.697
Li6Fe2O5F2,mp-776572,1.6397
K2U3(TeO7)2,mp-11887,1.8601
NaSr3LaTi5O15,mp-40830,1.8642000000000003
K2LiBiI6,mp-1110941,1.9247
WS2,mp-1028441,1.6559
Li9V5(SiO8)2,mp-767624,1.6405000000000003
Dy2MoO6,mp-17822,1.8776
NaDySe2,mp-999488,1.8635
CrBPbO4,mp-21100,1.9943
MgTiV4CoO12,mp-2231031,1.5577
Rb2S,mp-1102384,1.9681
Na5CaTi3SiP5O24,mp-2715849,1.8558
Te2H18N4O11,mp-1195988,1.947
V2Cd(P2O7)2,mp-19452,1.9801999999999995
Na4Ge2Se5,mp-568762,1.963
V6O5F19,mp-760037,1.7262
V2OF5,mp-752625,1.5114
C50Cl11,mp-1195608,1.6839
CsC3(SeN)3,mp-729525,1.6814
MgV2In2O8,mp-2233515,1.8606
YMgCu(WO4)2,mp-2233440,1.9025000000000003
RbMg30MnO32,mp-1038036,1.5804
Zn(SbO2)2,mp-1044866,1.7187
CaY5(MoO6)2,mp-1233995,1.9019
Li2Ti(TeO4)3,mp-756432,1.5033
Tl5Ag3(PS3)4,mp-1195546,1.6724
K2BaNi(NO2)6,mp-699399,1.929
Nd2MgCr2O8,mp-2218324,1.6496999999999995
ScAs2H4NO7,mp-1237757,1.73
Na4TiZn3SiS5O24,mp-2713451,1.6426
NaSc2Ge2P3(SO8)3,mp-2716468,1.9607
SbHC2NCl11,mp-733489,1.833
CsHoCdTe3,mp-12490,1.5467999999999995
SrS,mp-10627,1.7896
Sn2Ge2O7,mp-768877,1.5051000000000003
MgFe4(HO2)4,mp-2229818,1.7959
MgScNi2SbO6,mp-2234085,1.9499999999999995
YSeBr,mp-1100439,1.5457999999999998
CsSmCdTe3,mp-12497,1.5693
Ga2WO6,mp-770737,1.7670999999999997
MgHg2(BiO3)2,mp-2240382,1.6188000000000002
FeHC2O3,mp-600152,1.5805999999999998
InI2Br,mp-1223696,1.7868000000000002
MgUO4,mp-7858,1.6746000000000003
ThP2(NO4)2,mp-1217520,1.7289
SbPbClO2,mp-23138,1.9127
Mg2V2(SiO4)3,mp-1250278,1.7534999999999994
Zr2N2O,mp-776337,1.6059
Cd2AsHO5,mp-1198923,1.5943
Ba2CuIO2,mp-561179,1.9892
K3MoCl6,mp-1110883,1.6364
Na2O,mp-776952,1.5089
La5Se6N,mp-1224631,1.5880999999999998
Sr25Ti39O103,mp-1198567,1.9422
InSnCl3,mp-1224255,1.8708
Dy3Fe5O12,mp-21974,1.6504000000000003
MgV4FeNiO12,mp-2231114,1.8148
Li2BSbO4,mp-770654,1.6851999999999996
CsAuS,mp-1077383,1.8832
CoHRu3(CO)13,mp-734828,1.6203
Na3CaTi3Fe5O16,mp-1173821,1.5271000000000003
Nd2MgS4,mp-1232386,1.6672000000000002
ZnCrO4,mp-755896,1.8511
Sm9Al5Se21,mp-1218878,1.6431999999999998
NaCdFe(PO4)2,mp-1173827,1.8944
BaSrNbBiO6,mp-1521163,1.9496
Na6Nb3Al5Si6(SO8)6,mp-2716557,1.5143999999999995
Li3Fe3(PO4)4,mp-25813,1.9197
La6Sm2Cr5(FeO8)3,mp-1099896,1.5518
Li2V3O3F5,mp-764201,1.6107999999999998
Li11Fe12(BO3)12,mp-766660,1.5745
CaSn2O5,mp-2654140,1.5040999999999998
LiVPO5,mp-26963,1.5636
TiZn2O4,mp-1101024,1.8453
ZnS,mp-647075,1.9988
NiH10C4(SN4)2,mp-698358,1.9155
CsPbI3,mp-1120768,1.6421
Ba(SO2)4,mp-1214984,1.9979
LaTl(PSe3)2,mp-1195547,1.7774999999999994
CaMg6FeO8,mp-1032929,1.9144
MgMn2(WO4)2,mp-2226704,1.5824999999999996
P4Se5,mp-2447,1.8241
KC(NO2)2,mp-555541,1.9993
Cs2CeO3,mp-770996,1.818
Cs2NaTlCl6,mp-1112527,1.9178
Ba2ZnSe3,mp-1190528,1.6214000000000002
CaSO6,mp-1197885,1.9221
Li9Mn2Co5O16,mp-1175795,1.6593
V2Te2O9,mp-30901,1.9862
RbHfCu3Se4,mp-1179715,1.5509000000000002
K2Au(IO3)5,mp-1195201,1.9927
LiNbTe2WO12,mp-752611,1.5177
K2InGaCl6,mp-1111982,1.7475
Na2GeSe3,mp-28278,1.6256
Na2H4PtC4Br2(N2O)2,mp-706285,1.7953
InPb2I5,mp-23520,1.8572000000000009
W(ClO)2,mp-32539,1.7864
Cs2Hg3H2I8O,mp-1105928,1.77
Co6C13(SO6)2,mp-622901,1.6518000000000002
VZnP2O7,mp-1042065,1.6704
BC6XeF11,mp-1195493,1.5919
V4ZnO9,mp-1041384,1.8992
Ru3C10I2O9,mp-707821,1.9706
CoH6C2S2N2O3,mp-743619,1.8544
MgVAsO5,mp-1047070,1.6650000000000005
Mg30CdSiO32,mp-1039856,1.5483000000000002
K2SnBr6,mp-574040,1.6124
Li9Mn2Co5O16,mp-1175642,1.5093
LiFeSiO4,mp-758977,1.6395
K4US3O14,mp-653182,1.8491
Lu2MgCr2O8,mp-2219418,1.5029
Li8VNi3(PO4)6,mp-760785,1.5875
SbSI,mp-1095595,1.6628000000000005
MgNiO2,mp-1046084,1.8374
Ba(LaSe2)2,mp-37741,1.7602000000000002
Pb13(Cl3O5)2,mp-561236,1.8938
Ba3Lu2MoO9,mp-1228133,1.8983
UTl2O4,mp-1025154,1.5113
LiAg2(NO2)3,mp-1222677,1.7706
CsEr3Se5,mp-17410,1.5437999999999998
NaNbO3,mp-1198142,1.7321
BaCuSF,mp-1080650,1.6223
BN,mp-1245228,1.7402
MgFeAs2O7,mp-2218028,1.5653000000000006
FeHO2,mp-626307,1.6806
CsMg30BO31,mp-1098533,1.7588
LaFeWO6,mp-1043919,1.7712000000000003
V3OF11,mp-763903,1.9343
Li2Fe3P5O18,mp-759311,1.618
Ca6V3Fe7O24,mp-1227714,1.9401
Sr2TaFeO6,mp-31760,1.5015
Sr2LiLaTi4O12,mp-1218768,1.8370999999999995
LiV2OF5,mp-776824,1.7071999999999998
Ba2LiY2(Fe2O5)2,mp-1235532,1.7834000000000003
Co2As2O7,mp-546953,1.5277000000000005
LiLa4Ga2(FeO6)2,mp-1236274,1.9848
Li3Fe4(OF3)3,mp-755687,1.749
Sr7Mn4O15,mp-1218641,1.5754
Li3Mn5O2F9,mp-758528,1.5145
LiV2OF5,mp-776415,1.5573
Rb3NpH8O9,mp-1198189,1.6067
Li3MnF6,mp-777812,1.6087
Mg2VN3,mp-1029368,1.9883
MgTiO3,mp-1016830,1.9098
Dy3CuSiSe7,mp-569557,1.5196000000000005
CsYMg30O32,mp-1037669,1.7733999999999996
NaSr2LaTi4O12,mp-1220889,1.8639
Cr2SiO4,mp-18800,1.9961
Mo2O5,mp-1043432,1.5101999999999998
Ba2BiSbO6,mp-545603,1.6438999999999997
Cd2Bi6O11,mp-676923,1.8321
Li4Bi2C4SO16,mp-768256,1.9868
LiVF5,mp-760803,1.8101
Na18Ca4Nb8Si15(SO24)3,mp-2714006,1.7191000000000003
Na5Fe2P2(CO7)2,mp-770837,1.6004
Li5V3Cr2O10,mp-756826,1.7064
Na6MgSi6Ge7(SO8)6,mp-2714893,1.5409
Pr2CdS4,mp-36912,1.6469999999999998
MgB9N,mp-30091,1.6752999999999991
BaNb4Bi4PbO18,mp-1228636,1.8562
Ba2BiSbO6,mp-1521651,1.7228000000000003
Cs2LiMnO4,mp-18722,1.5915
Ba4Nd2Cd3Se10,mp-10409,1.5191
Cr3P2H40(C8O5)2,mp-1196309,1.9923
Ba3La7Ti3Cr7O30,mp-697840,1.5262000000000002
Mg30BiBO32,mp-1098202,1.877699999999999
LiDySe2,mp-15795,1.5347999999999995
AlNiF5,mp-1263325,1.9441
Na2Li2V3P2O13,mp-849320,1.7887000000000002
V2CoO6,mp-19311,1.9884
Dy2MgS4,mp-1232142,1.5729000000000002
Sr6Mg(W2O9)2,mp-1233382,1.7620999999999998
GaS,mp-9889,1.8665
LiCoO2,mp-853240,1.8839
Tl6TeO6,mp-8387,1.5632999999999997
Si2AuN3,mp-1246525,1.7297999999999991
Na3CaNb5Si6(SO12)3,mp-2715820,1.8154
Tb12Si5S28,mp-1217871,1.654
Cs3Bi2(PS4)3,mp-1200951,1.9768
Ba2CaWN4,mp-669377,1.8491
V2NiO6,mp-1100939,1.6162999999999998
LiMnF4,mp-761183,1.5767
Cr(Si2O5)2,mp-779017,1.828
CsK5Zn4Sn5S17,mp-641018,1.6840000000000002
Li2MnF4,mp-777846,1.9728000000000003
K2Na4Li2Ti4Mn3Fe(SiO3)16,mp-1224604,1.7582
AuBr,mp-505366,1.6885
SiGeN2,mp-1246712,1.7851
BaTbNbSnO6,mp-1517744,1.9559
TiSi3H30C10(N2Cl)2,mp-1203146,1.7889
ZnS,mp-1196782,1.9864
K5UCr3H3NO17,mp-1213511,1.6782
CaSnAsO5,mp-1380645,1.7467999999999997
CaLaTaCrO6,mp-1040806,1.9194000000000004
K9CuS8(NO9)2,mp-1199172,1.7444
Na2NbIn3Si2(SO6)4,mp-2712725,1.6269999999999998
CuH5C5NCl,mp-570040,1.6357000000000002
La10Se14O,mp-558535,1.5518999999999998
SrCaGdBiO6,mp-1520703,1.6724
LiFe4(BO3)4,mp-761195,1.5778
MgTl4V4(TeO5)4,mp-1233086,1.8613
TmSeO3,mp-768396,1.6738000000000004
Y2O3,mp-1216050,1.5869
Na2VO3,mp-780698,1.5297999999999998
NaNb(CuS2)2,mp-1189564,1.5916
Sr2YMgCrO6,mp-2217803,1.7488999999999997
BaCaLaBiO6,mp-1522312,1.8574
Nd9Ga5S21,mp-1220718,1.6652999999999998
BCl(OF2)2,mp-557856,1.6826
Rb2Mo6H2Cl14O,mp-1220928,1.5570000000000002
SiSnGe(SO6)2,mp-2713382,1.8064
MoAsO5,mp-1367924,1.787
TlHg6Se4Br5,mp-1202157,1.989
Ca2V3Co2AgO12,mp-726140,1.6195000000000004
SiC,mp-1199063,1.6849000000000007
LiCrPH2O5,mp-780670,1.7098
KBi(PSe3)2,mp-568802,1.7637
HgS,mp-9252,1.6863
Sr2TaCoO6,mp-1283831,1.6183000000000003
Ir(SeBr3)3,mp-1192469,1.6213
Fe3MoC11SeS3O11,mp-683831,1.6811
Na18Ca8Ta16Si21(S5O48)3,mp-2712868,1.6757000000000002
Na2TeS3,mp-1190141,1.7828
Li32Ti13Cr3O48,mp-1177824,1.5932000000000002
K2MoS3O,mp-1193903,1.9216
Mn(BH4)2,mp-1204859,1.827
Cs8Fe2O7,mp-1198676,1.7378
Na6Zn6SiSn2S11O48,mp-2712727,1.5652
TeCF2,mp-28836,1.6616000000000002
Tb2TeS2,mp-1217684,1.8187
RbS,mp-9062,1.5781
CsCdCl3,mp-568544,1.7462
ZnS,mp-1198139,1.9919
CrCoH18(CN2)6,mp-24376,1.8356
Li2CoSnO4,mp-768412,1.7912999999999997
Er2PbSe4,mp-569786,1.8036000000000003
Li6V3P8O29,mp-1177100,1.5882999999999998
BaH8(IO6)2,mp-1204016,1.9918
ZnNi4O5,mp-765902,1.9107000000000005
Ba4NaGe3S10Cl,mp-1201802,1.8421
Li4Ti11O24,mp-767194,1.8721
Ag4P2S7,mp-27482,1.6556000000000002
NaLiMg14O15,mp-1035393,1.7500000000000004
MgTe3WO12,mp-2224751,1.8794
Ce2ThO6,mp-1226807,1.9619
Li3Ag2F5,mp-759449,1.5188
Sm2ThS5,mp-1203455,1.5222999999999995
Li2CuPO4,mp-27063,1.6655999999999995
NbZn2N3,mp-1029422,1.8501
Zn3H6C6(IO6)2,mp-1204276,1.5493
YMgCu(WO4)2,mp-2233403,1.8158
Ti2Sb2Pb4O13,mp-1217219,1.6246999999999998
MgAu2(SO4)4,mp-1194889,1.7625000000000002
La2MgCo2Sb2(PbO6)2,mp-1233463,1.7999999999999998
Li5CuF6,mp-760782,1.9853
V4(P2O7)3,mp-557332,1.7479
CsPPbSe4,mp-1193277,1.5613
Rb2LaNb5O15,mp-1209583,1.8633
Cs2UMoO7,mp-581443,1.6953000000000005
HfCrO3,mp-756322,1.5871000000000004
Si10BiTe2H73C25,mp-1204603,1.9396
Sr2BiSbO6,mp-1518287,1.9364
Cs2LiMoCl6,mp-1110989,1.5978
MgFe2(WO4)2,mp-2219948,1.7589999999999997
P,mp-568348,1.8454
Ta2H15N6Cl7,mp-777563,1.8687
SnNF3,mp-1179476,1.7622999999999998
Li5Co7O3F13,mp-752571,1.804
KGdHf2O6,mp-1519318,1.7960999999999998
LiMnF5,mp-764980,1.8278
Li4MnCo2O7,mp-1174394,1.712
K2Ag3Sb3S7,mp-1223709,1.8382
Fe2S3(NO6)2,mp-1213033,1.7674
LiHo2Cu(SiO3)4,mp-1235972,1.6822000000000008
K2FeO4,mp-1178165,1.6197
CuH12C5S4N,mp-698375,1.6568999999999998
Na4Ca3SnP2(SO6)4,mp-2713358,1.7274999999999998
LiFeP2O7,mp-1101560,1.8744
Rb3Sb2I9,mp-1195452,1.8541
SbCl3F2,mp-29391,1.8283
Sr2MgZrCoO6,mp-2217759,1.5822000000000005
SiWO4,mp-1249282,1.9867
Tl3SbS3,mp-8393,1.592
Sr2GdBiO6,mp-1516894,1.6993
MnSbO4,mp-1280914,1.6205999999999996
Tm10Ti6O27,mp-685862,1.9511
H3PbS2N3,mp-722351,1.9036
Ba2PrBiO6,mp-1214573,1.7599999999999998
Y2W2O9,mp-770639,1.9715
Li2FeSnO4,mp-1177968,1.7179000000000002
Cs2KMoCl6,mp-1111876,1.666
K4Nb8Si(P2O17)2,mp-14873,1.8863
Na8ZnSi5Sn3SO24,mp-2715753,1.6475
Na4Mg(MoO4)2,mp-2228694,1.5988999999999998
InSb2S4Br,mp-559864,1.5308000000000002
W3O8,mp-1404844,1.6162
ScMn2SbO6,mp-1219325,1.9542
NiSn2(OF)6,mp-1210687,1.829
Li2NiSnO4,mp-755249,1.9166
Na3FePCO7,mp-22135,1.8038
LiSmS2,mp-1222296,1.9482
RbMg6BO7,mp-1033632,1.8588
Li4V3O8,mp-1308066,1.6730999999999998
Hg2Te2O7,mp-18321,1.5682000000000005
FeHO2,mp-626088,1.7285
MgZn2Mo3O8,mp-2228177,1.5012
BaNiO3,mp-19241,1.5157000000000005
Cs3W2N5,mp-1119092,1.9682
KGeBiS4,mp-866646,1.6686
MgScCu3Se4,mp-1180319,1.7070000000000003
La20S29O,mp-1224734,1.8812
Ba2TbBiO6,mp-1520515,1.7238000000000002
Li3V5O12,mp-1289331,1.6216000000000002
Nb3GaSi3(SO8)3,mp-2713840,1.7734
Na5Y3Ge(PO4)6,mp-2713532,1.7028
Sr8SnPb3O16,mp-1218629,1.5169000000000006
V2OF5,mp-756285,1.7274
MgFe4As2O11,mp-2229130,1.6195
CaTi4(FeO4)3,mp-20986,1.6248
Na6Nb4Zn2Si6(SO12)3,mp-2712752,1.919
Tl3Cr2(PS4)3,mp-1208541,1.5650000000000002
K2PdC4(SN)4,mp-650023,1.585
Sr2LiCdWO6,mp-1235784,1.7062
CoF3,mp-1271079,1.6435
YWN3,mp-989615,1.958
Sm2Ti3(BiO6)2,mp-557438,1.8995
K3Mo4(P2O11)2,mp-818285,1.5057999999999998
LiVFeP2(HO5)2,mp-765988,1.7801
P3N4Cl5,mp-726226,1.6674000000000002
BaNaCeSbO6,mp-1520946,1.8795
Ca(MoO2)2,mp-1047293,1.8468
Na2InAsF6,mp-1111075,1.6098999999999997
Li3Fe2(SiO4)2,mp-758173,1.8961
KHgI3,mp-725939,1.7116
W(OF)2,mp-759764,1.6949
BaCa2In6O12,mp-1228325,1.9489
U(HO2)2,mp-626885,1.9110000000000005
ScSb3Pb4O13,mp-1219278,1.6129999999999995
Li3MnF6,mp-2913178,1.852
Na2ReO3,mp-1210286,1.9954999999999996
NaU4V3O20,mp-1221127,1.8662
Li3Cr2(PO4)3,mp-26489,1.8925000000000003
SbCl2F3,mp-27353,1.6863
Fe3(TeO3)4,mp-561343,1.7774
Sr2NiTeO6,mp-1205327,1.9153
CuH16C4(N5O)2,mp-759393,1.5498
Ca3SnS5,mp-1100373,1.9459
Ce3Dy2O9,mp-675192,1.7604999999999995
La5Ti6S3(ClO5)3,mp-690978,1.7618999999999998
K2MgFe4P6(O4F3)4,mp-1233873,1.8506
Mg5AlH21O17,mp-677288,1.719
Na3ScSi2GeSO12,mp-2714525,1.8903
Li5Fe4(P2O7)4,mp-1177154,1.5665999999999998
Li3BiS3,mp-774336,1.9514
Cd2Ga2Se5,mp-1227014,1.9824
P2H24PdC12(BrN3)2,mp-708969,1.5577
Li2VCrP2(HO5)2,mp-759948,1.7900999999999998
Zn6S5Cl2,mp-1215990,1.5051
Li8CoO5F,mp-780787,1.5228000000000002
LiY5(MoO6)2,mp-1235884,1.6868
Cu3P4(SI)3,mp-559307,1.5135999999999998
Na2MnF5,mp-555618,1.693
K4Ni(NO2)6,mp-558721,1.8294
KBiO2,mp-30988,1.8514
Na6CaTi7Si6(SO8)6,mp-2714789,1.6803
V3OF11,mp-779357,1.7611
Mg30CrNiO32,mp-1037024,1.7041999999999993
Tl6SeI4,mp-28517,1.6854000000000005
Na10Sc4Si7Sn4S5O48,mp-2715927,1.887
Na2Al2Ga2SiS5O24,mp-2714575,1.7983000000000002
Lu3Fe5O12,mp-559750,1.5642
RuS3Cl8,mp-29568,1.8602
Rb4Ca(Se2O7)2,mp-1233125,1.6712
Na4CaSi2GeSO12,mp-2714568,1.5690999999999995
Al2Se3,mp-11674,1.8004000000000002
Li2MnV3O8,mp-1275702,1.6982999999999997
Cd3Ga2(GeO4)3,mp-1213979,1.7373000000000005
Hg3C2(N2Cl)2,mp-569515,1.7705000000000002
V4OF11,mp-1101212,1.7298