pretty_formula,material_id,band_gap
NaCaCeBiO6,mp-1516713,1.9195
NaLiMg14O15,mp-1035418,1.6332
ZnCo(GeO3)2,mp-1043317,1.5351
Mo(HO2)2,mp-626556,1.9883
Sr3LaMn2(WO6)2,mp-706225,1.5598999999999998
Na4MgTi2(GeO5)2,mp-2230747,1.8586
Na4Mg(FeO2)4,mp-2229153,1.5012
Li9Mn2Co5O16,mp-1175764,1.5252000000000003
CsMo3I7,mp-1199497,1.6159999999999997
Li6V3P8O29,mp-1176896,1.6115
K4I2O9,mp-27764,1.9183
K3AlH6,mp-23697,1.7988000000000002
Li2CaV12O32,mp-1223290,1.7944
Ag6Mo2ClO7F3,mp-553919,1.5595
SnS8(N2Cl)4,mp-566296,1.5998
Zr2N2O,mp-775849,1.6698000000000004
PmInO3,mp-1186597,1.6185
Li2V3CoO8,mp-1301441,1.5781
Na2LaSn(PO4)3,mp-2713557,1.6441
Ba4LiW2N7,mp-6665,1.763
MgFe6(O2F)4,mp-2231171,1.7606
Li2V3CoO8,mp-1280692,1.7605
Li2NiO2,mp-754756,1.938
La2MgV2O8,mp-2233751,1.7410999999999994
LiFe(PO3)4,mp-758724,1.8853
Li8Te2O9,mp-772619,1.9261000000000004
Mg2Al3CrS8,mp-1247020,1.5980000000000008
La2Ti3ZnO10,mp-1223063,1.7776999999999994
Rb2BaPt2(CN)8,mp-637582,1.7071
Ca(SbO2)2,mp-1345720,1.675599999999999
Ba2LiReO6,mp-6270,1.8198000000000003
Li4Mn(WO4)3,mp-755247,1.6778000000000004
LiFeCO4,mp-758117,1.8973
Cs8In2O7,mp-1196865,1.8541
K6Sn2Se7,mp-29386,1.6684
AlNi(WO4)2,mp-1254576,1.9588
Ba2NdVO6,mp-1520908,1.6381
Cs2LiTm2(WO4)4,mp-1235182,1.9371
MgMn2V2(BiO5)2,mp-2241060,1.6027
BaSrMgTeO6,mp-1227325,1.9918
La2O3,mp-553347,1.5342000000000002
AgP(OF)2,mp-1194585,1.9686
Ca2FeH6,mp-1205964,1.5002999999999995
Sr3(AlN2)2,mp-17129,1.9055
Sr2ErBiO6,mp-1208875,1.9513000000000005
Na3GdI6,mp-675237,1.5496
Li2NiOF2,mp-753392,1.6075999999999997
VO2F,mp-754683,1.6827
Li2ZnSn3O8,mp-555965,1.9407
Na5Mn3S4(O4F)4,mp-1194736,1.7777
Na3Ca5Nb(SO4)9,mp-2714264,1.5892
Li4Ni5Sn(PO4)6,mp-758677,1.7132999999999998
TeAs(SeF3)2,mp-651161,1.6178
Tl3V(SeS)2,mp-1216543,1.5306000000000002
K2YNb5O15,mp-558325,1.6128000000000002
Ni(SbO2)2,mp-21275,1.7233
Dy2Sb2O7,mp-769138,1.8432000000000004
Mg(MoO2)2,mp-1042131,1.8796
FePO6,mp-1213605,1.8192
AsS4N4F5,mp-559296,1.7123
Mg30VZnO32,mp-1037352,1.9261
Mo(PO3)4,mp-697769,1.7120000000000002
VAg2PO6,mp-558255,1.835
MgV2H2O5,mp-2223097,1.8302000000000005
LiFeSiO4,mp-758940,1.6395
U(TeO3)3,mp-554219,1.7448000000000006
Mg2Al2Se5,mp-29624,1.97
K2Gd2Mg(MoO4)4,mp-1234663,1.6099
Na2CaTi3P4(SO12)2,mp-2714177,1.8592
Cd3(BO3)2,mp-1192091,1.5869999999999995
Na6Ca2Zr2Si3(SO8)3,mp-2716154,1.6916
MgV2H2O5,mp-2240197,1.6096000000000004
Na3Mg2Nb10Si3(P5O24)3,mp-2715707,1.935
Zn2Mo(WO4)2,mp-1215894,1.6422
MgTiBi(PO4)3,mp-1043828,1.8867000000000005
CrGeSbO6,mp-1226344,1.7907000000000002
LiMo3P3O16,mp-17314,1.6483
Li3Fe(PO4)2,mp-26575,1.6401
Sr2NCl,mp-23033,1.9398000000000004
Li2Co3OF6,mp-761080,1.6904
P2WO8,mp-754254,1.8937
Ca2NF,mp-33588,1.6841
Li2CrFeO4,mp-755848,1.6727
Sr2LaTi2Nb3O15,mp-1218793,1.5888
MgV2Zn2(SiO5)2,mp-2215892,1.8008000000000002
Cs2PdC2,mp-505824,1.7513999999999998
Pr3SiN3O2,mp-1219842,1.5786999999999995
LiVPO4F,mp-776659,1.6608
Na3V(BO3)2,mp-773603,1.7706999999999995
Li3Sn2(PO4)3,mp-758376,1.7405
LiLa4Ga2(FeO6)2,mp-1235621,1.821
SeS2(NCl)2,mp-561329,1.7656999999999998
CsErCdTe3,mp-12488,1.5492
Sr5ZrTi4O15,mp-1218512,1.7596999999999996
Mo(PO3)4,mp-1045821,1.7985000000000002
Li5SbS4,mp-776253,1.6083
Sm2MgMo2(ClO4)2,mp-2232253,1.9115
La2MgVO6,mp-1411395,1.7390999999999996
Na5Fe2P2(CO7)2,mp-1644889,1.5622
Li2V(OF)2,mp-1280578,1.9109000000000005
La2Cd(SeO)2,mp-1211284,1.9843
Li5CrCl8,mp-23361,1.7483
Na2Y3Nb5(PO4)12,mp-2713893,1.8657
BaMn2O8,mp-554123,1.6758
TlPS3,mp-8249,1.7362000000000002
Na6Mg6Ti2SiS11O48,mp-2713230,1.5064000000000002
Rb2Ag4Pd3(NO2)12,mp-558305,1.7326
LiV(WO4)2,mp-1210933,1.8383000000000005
Ca5Sn3S11,mp-1100378,1.9316000000000004
Cs4V2S4O3,mp-572287,1.9412000000000005
LiV(SO4)2,mp-771941,1.8683
Mo(PO3)4,mp-695772,1.8145
Na8Ca2In2Si3(SO8)3,mp-2715207,1.5221
SrLaVO4,mp-1272417,1.7713
Y2MgCr2O8,mp-2219362,1.6753
Ba4ScReWO12,mp-1228167,1.8841
NaIO4,mp-27401,1.8841
Ge2MoO6,mp-1043238,1.5225999999999995
Na2LaNbSi2SO12,mp-2712700,1.9259
InSnP(SO6)2,mp-2712894,1.959
Ti4S8Cl6O,mp-558135,1.6012
Mn4C15S4O15,mp-704101,1.9026
LiV4(PO4)3,mp-758267,1.9653
BaSrLaVO6,mp-1520602,1.8488
BaYFeO4,mp-1195207,1.7746
Mg30MnSnO32,mp-1038154,1.8544
Mg3(HO3)2,mp-37315,1.9628
Na5GdO4,mp-780241,1.9635
KTaPS6,mp-683955,1.5714
K2Ag2GeS4,mp-558500,1.6880000000000002
Ba7Fe7F34,mp-1214486,1.9244
VOF3,mp-776441,1.8397
TiAsH18C6N3Cl4,mp-1203989,1.9546
AuS3(O3F)3,mp-560021,1.5564
NaCdAsS3,mp-1192203,1.9753
Ca(FeO2)2,mp-1328340,1.5783999999999998
SrCaGdBiO6,mp-1520906,1.7155
YSn(WO4)2,mp-1045036,1.9163
Li24Mn11CrO36,mp-770669,1.5100000000000002
MgZn4(Se2O5)4,mp-1233738,1.8549
Na2TiNiO4,mp-1221264,1.509
Fe2TeWC10SeO10,mp-624009,1.912
TlSb3S5,mp-27515,1.5151
Fe6OF11,mp-779354,1.6231000000000002
Na14Mg2Si9Ge6(SO16)3,mp-2714621,1.959
H8PdS8(NO13)2,mp-1194780,1.5619
SbXeF11,mp-1195229,1.7571999999999997
NaMn(HO)3,mp-758826,1.6517
Er5C2Br9,mp-29401,1.7638000000000005
AgAsS16N16(O4F3)2,mp-1196797,1.8455
TmCuPbS3,mp-1216911,1.5547000000000004
KV4P7O24,mp-557659,1.9235
Se,mp-542461,1.5703
Co3Ge(CO)10,mp-645902,1.9585
MoP2O7,mp-26240,1.525
K2V3P4H4O19,mp-743881,1.7741000000000002
VSb(SeO3)4,mp-1216305,1.5958
Si2Hg6O7,mp-28712,1.5122
KLiZn3O4,mp-1223469,1.6430000000000002
Na2U2O7,mp-1195011,1.6069000000000004
Li2VFe(P2O7)2,mp-1177780,1.8738
Li4MnF7,mp-755600,1.5261
U3Tl2(IO5)4,mp-558108,1.7019000000000002
Sm6Cd(SiS7)2,mp-1219147,1.8741000000000003
CsRe3(S2Br)2,mp-683890,1.8417
LiCuF2,mp-753098,1.8448
NiH18C4S6(N2O)4,mp-604327,1.8271
LiVOF3,mp-764760,1.8075
GaH18I3N7,mp-1202603,1.5066000000000002
NaNbO3,mp-1203293,1.8049
Cs2ScCuF6,mp-1112591,1.8308
MgAsH7O4,mp-1212331,1.6659
NbIn3SiS5O24,mp-2712892,1.6647999999999998
KMg14AlO16,mp-1036563,1.8639
V(PO3)4,mp-26956,1.6464
Na10Ca4Ta4Si7S5O48,mp-2715882,1.7383
CaCoAsHO5,mp-23815,1.9298
Cs2As8S13,mp-650280,1.5072
Fe2O3,mp-1456,1.5673
Tl(C2O5)2,mp-1179261,1.9784
LiVPO5,mp-27055,1.9579
K19Ti3Sb29O88,mp-1226658,1.5473
K5RbZn4Sn5S17,mp-694852,1.612
Li6V3P6WO24,mp-758674,1.5166999999999995
MgSn3(P2O7)2,mp-1046958,1.9404
Li4SnSe4,mp-1194700,1.6929
Y5Mg(MoO6)2,mp-1233219,1.8988
TaO2F,mp-1217888,1.5127000000000002
Li2FeO2F,mp-776489,1.6758000000000002
La3Ti5Al15O37,mp-555471,1.5589000000000004
NaV(NF3)2,mp-1079436,1.6235000000000002
NaP7,mp-1195785,1.7429
ZnH24Au2C12S8(NCl)4,mp-1194676,1.6528
BaNa6O4,mp-755322,1.5878
Li2VFe(P2O7)2,mp-1177776,1.8972
LiGeRhO4,mp-1222349,1.6894999999999998
AgAsS6N4(OF3)2,mp-649756,1.8583
TaFeO4,mp-39933,1.9148
Li2VO2F,mp-777778,1.7347
Li6Fe3Cu(PO4)6,mp-769476,1.9126
LaTiNbBi2O9,mp-636654,1.7236000000000002
MgV2Te2O7F2,mp-2228522,1.6192999999999995
Cs3Zr2P5S18,mp-1204981,1.9114
TlIO4,mp-30032,1.9738
Na4MgSiGe(PO6)2,mp-2714594,1.6970999999999998
Cs2GeSe4,mp-1104024,1.6824
Os3C8SO8,mp-648289,1.7639
Li7Fe4(P2O7)4,mp-1176933,1.6231999999999998
Tl2CuAsO4,mp-559727,1.6119
LiMnF4,mp-776117,1.8179
LiCa2Nb3O10,mp-773024,1.8316
CuPN2,mp-1078469,1.8222999999999985
Li3Fe2P2(O4F)2,mp-1177665,1.5577
LiV2F9,mp-1176613,1.7635
SnO2,mp-1044721,1.6070000000000002
Ta2Mn2O7,mp-755851,1.9710999999999996
Nb3Sb(PO4)6,mp-1220893,1.6892
Li2VCrO4,mp-753811,1.7173999999999996
V4O7F5,mp-759555,1.5531
Li2FeO2F,mp-776471,1.6863
MgNi2(BiO3)2,mp-2217787,1.7572
LiSb(MoO4)2,mp-836278,1.8344
SrLaMnSbO6,mp-727395,1.7198000000000002
Rb3GePSe7,mp-861898,1.5629
NaLa2Ti2P3(SO8)3,mp-2716413,1.9598
VF4,mp-760249,1.952
H5NO2,mp-625108,1.5646
H10IrC2(ClO)3,mp-1195804,1.9822
La4Mg(MoO6)2,mp-2230574,1.6868999999999996
Na4V2C4SO16,mp-850995,1.5699
SbSeCl9,mp-28985,1.9981
Hf4Ti(PbO3)5,mp-1225074,1.5485
TiNbGaO6,mp-1216751,1.5777000000000003
Na7NbZn3(PO4)6,mp-2714134,1.8656
Li2VO2F,mp-861538,1.8143
ZnS,mp-555214,1.5972999999999995
Na9Ca4Nb2(PO4)9,mp-2715365,1.6482
Cr5O12,mp-773920,1.7946999999999995
KMg14WO16,mp-1035811,1.5868000000000002
CrOF,mp-753484,1.9206
CoH32C8S4(NO5)2,mp-600234,1.94
CsRbMg30O31,mp-1040252,1.7635999999999994
TiNbCrO6,mp-1216808,1.6732
TlGaSe2,mp-680555,1.6737000000000002
K2UO4,mp-3808,1.9773
MgCr2O4,mp-2215960,1.7977000000000003
Li2Ti3FeO8,mp-775874,1.5364
SnO,mp-545552,1.6851000000000005
LiFe4(BO3)4,mp-764738,1.7156
TmCrTeO6,mp-1207944,1.5242
Os2C6SeO6,mp-651026,1.8468
CsCr3O8,mp-573422,1.6758000000000002
Li3P11(H3N)17,mp-722502,1.9668
MnAl2P2(H5O4)4,mp-1238482,1.5294
Na5La3Si3Ge(SO8)3,mp-2716455,1.9579
WO3,mp-825726,1.6296
NaAlH4,mp-1102924,1.8724
SrMo(PO4)2,mp-1046415,1.8806
Rb2InGaCl6,mp-1114060,1.5778
Mg(SbO2)2,mp-1041642,1.8192000000000004
Li4Cr3FeO8,mp-755153,1.9624
TiPb15O17,mp-1101033,1.6896000000000004
Ba3Sc2N4,mp-1247132,1.6042
Sn15Os3O14,mp-28456,1.5083000000000002
Na3NbZnSi(PO6)2,mp-2715441,1.7451
Ba2MgMo4(Se2O11)2,mp-1233487,1.6881
Li3VCr3O8,mp-769583,1.5089000000000006
Na2Ge2Se5,mp-18619,1.5615
Ca(WO2)2,mp-1041518,1.9131000000000005
LaNbSi(SO6)2,mp-2713430,1.723
LiAlSi2O7,mp-1191091,1.8606
NbO2F,mp-673845,1.9496
Na3LaGe3(PO4)6,mp-2714762,1.6593000000000002
UVAgO6,mp-622619,1.6036
Nd2O3,mp-7954,1.5703
SrTiO3,mp-551830,1.7869999999999997
Mg(FeO2)2,mp-1388405,1.7645
Na6U5V2O23,mp-700033,1.8105
Li24Mn11CrO36,mp-770619,1.5105
Li4MnV(PO4)3,mp-768583,1.8184
Na2Zr4Si5Ge4S7O48,mp-2716153,1.5959
Rb4Nb2S10O,mp-556467,1.5716
FeSn(PO4)2,mp-1178211,1.6008
BaH8PtC4(NO)4,mp-720842,1.835
Hg3(TeBr)2,mp-27853,1.7040000000000002
Li4V3Ni(PO4)4,mp-1177236,1.8040000000000005
VSb3(PO4)4,mp-754190,1.8837
V3(H3O5)2,mp-627606,1.5017
MnGeO3,mp-20798,1.6731999999999996
W2C7Br4O7,mp-650538,1.8225
Cs2Pt,mp-13548,1.6743
MgFe4(OF)4,mp-2218329,1.5385
H7AuN4O15,mp-1201215,1.9431
TeI4,mp-570884,1.7639000000000002
Pt(SCl4)2,mp-28721,1.9198
Na2Ti4Si5Ge4S7O48,mp-2716158,1.5232
Li2VCrP2(O4F)2,mp-759783,1.7907000000000002
La2Nb2N2O5,mp-849727,1.5454
La2Mn(SeO)2,mp-1223368,1.7513000000000003
PbWO4,mp-1179954,1.879
K2AgIrF6,mp-1112282,1.5151999999999997
In(HO)3,mp-676855,1.9486
Cs2ScInI6,mp-1113068,1.9468
Gd6S3(OF4)2,mp-1224731,1.5214
Tl6SBr4,mp-28518,1.8121
Co3B7IO13,mp-1182660,1.6902999999999997
Ga2Pb2S5,mp-557672,1.9122
Li2VCr(P2O7)2,mp-761112,1.7616
La5C2Cl9,mp-619791,1.6330999999999998
NaYTiSi(SO6)2,mp-2712567,1.5608
MgV4Zn2O10,mp-2229119,1.5314
AlBiN2,mp-1245799,1.5775999999999994
MnH12C2(NCl2)2,mp-569124,1.5219
HoCuS2,mp-560611,1.8811000000000004
V4(OF3)3,mp-755079,1.5203
Ca6Te3N2,mp-1246515,1.8432999999999995
Li3U7(PO7)5,mp-557826,1.9176
Na3CaGe3P5SO24,mp-2715872,1.5399999999999998
Li3V2(PO4)3,mp-32530,1.9588
K2AgAsCl6,mp-1112480,1.519
Li2CrPO4F,mp-770894,1.9864
Ba2CaV2(P2O9)2,mp-1363137,1.9504
V2OF7,mp-759705,1.7909000000000002
CoTe(PbO3)2,mp-1079450,1.6060999999999996
Fe8H10O17,mp-1182530,1.642
AlAgS2,mp-5782,1.8992
Li2Fe3O3F5,mp-849525,1.7338
BaTiO3,mp-5933,1.7260999999999995
NdInO3,mp-1186316,1.6467999999999998
Cd2(TeO3)3,mp-30941,1.7487
LiCoSiO4,mp-778061,1.5174
Mg14MnZnO16,mp-1036207,1.6895999999999995
Na2Ca4ZrNbSi4O17F,mp-1221911,1.8513999999999995
LiVCoO4,mp-754522,1.7869000000000002
Rb3As7,mp-570539,1.5282
TiMnH12(OF)6,mp-505405,1.9468
Bi(WBr3)3,mp-1198859,1.9682
Rb2AgSbCl6,mp-1110803,1.6275
Li4VTe(WO6)2,mp-775927,1.658
YCrF5,mp-1395840,1.6172000000000002
Na10Sc4Si7Ge4S5O48,mp-2715919,1.6720000000000002
Na2YCuCl6,mp-1111514,1.6871999999999998
BH11AuC4IN2,mp-698289,1.9587
BaMnSnWO6,mp-1518034,1.6954000000000002
Li5MnCr3O8,mp-761082,1.9727000000000008
Bi2W3(CO)15,mp-705040,1.7956
LiMnP2O7,mp-26379,1.7152
Nb2Cd2O7,mp-647999,1.7069
Li6AsS5I,mp-1222482,1.5398
Mn2Pt(CO)12,mp-573318,1.7822
CaFe3Si2O9,mp-1238485,1.8425
Ba2P7Br,mp-1105535,1.6528
Sr2ZrMnO6,mp-1080730,1.5060000000000002
CsCrH8(NO4)2,mp-1105257,1.9342
Al3BC3,mp-1228599,1.8203
Na3YSi3Sn3(SO8)3,mp-2714731,1.7457000000000005
Li3Fe2(SiO4)2,mp-1177702,1.5291
LaMnO3,mp-566602,1.6926
NaFeP2(O3F)2,mp-1199438,1.8637
SiC,mp-570791,1.9695
Na4Mg(WO4)2,mp-2232667,1.6753
TiFeO3,mp-19074,1.6437
Ru4C12N2O13,mp-707955,1.57
Li2Cr2O7,mp-771091,1.804
Li3Cr(PO4)2,mp-31746,1.9816000000000005
Rb2TlGaBr6,mp-1114007,1.6518
Tm(CuS)3,mp-1216740,1.5452000000000004
Ba2GaS4,mp-1199702,1.8917
NaY2Sn2P3(SO8)3,mp-2716294,1.5532999999999997
SrLaTiMnO6,mp-1278251,1.5587
FeSbO4,mp-1178209,1.6381
NaAg(CO2)2,mp-985610,1.6802
Cs3BP2,mp-9675,1.6955000000000002
SrC2,mp-1008776,1.7975
Sr2BrN,mp-23056,1.8455
Li15W7N19,mp-1245780,1.5830000000000002
AuCN,mp-29196,1.861
Ca2UO5,mp-17956,1.8516
Na6MgTi3Si4(SO12)2,mp-2714467,1.8478
Ca4PdO6,mp-10299,1.8227
Na2Cr4O13,mp-780181,1.7697
NdCuSO,mp-542314,1.6179999999999994
Li2VF6,mp-1177790,1.7644
Ca2SnS4,mp-866521,1.6014999999999997
LiFe2(BO3)2,mp-761226,1.6688
Sb4S5Cl2,mp-29573,1.8692
VCrO4,mp-19418,1.6011
ErVO3,mp-19205,1.5838
Li3RhF6,mp-1212121,1.6630999999999998
KHgC3(SN)3,mp-630760,1.6838
Na2Ca17V2(PO4)14,mp-706342,1.9593
Fe2Pb(SeO3)4,mp-1224708,1.8645
LiFeO2,mp-850511,1.6485
Ba2Sr2CaTi5O15,mp-1228440,1.7732
Tb2O3,mp-1217673,1.5609000000000002
Cd(AgI2)2,mp-1025377,1.7741000000000002
Ag3AuS2,mp-34460,1.5633999999999997
Li4Bi2C4SO16,mp-768991,1.9868
YGeP(SO6)2,mp-2712830,1.6227999999999998
Ca2PI,mp-635393,1.5958999999999994
Dy3CuGeS7,mp-558740,1.8098
WO2F,mp-2675517,1.6484
Sr8MgP4(IO4)4,mp-1233897,1.5478
Rb2Hf2O5,mp-863749,1.9468
ZrSnCl6,mp-29018,1.9774000000000005
TaTiAlO6,mp-1217913,1.9264000000000008
MgV2(OF3)2,mp-2217581,1.5863
LiLa2VO6,mp-1206458,1.9389000000000003
FeTe2BrO5,mp-554007,1.8634
FeH10N3O14,mp-1198118,1.8689
Rb2PrCuI6,mp-1110763,1.7961
Li2VFeP2(HO5)2,mp-1177766,1.7845
Sr2ScBiO6,mp-1208736,1.7949000000000002
La2ZnMoO6,mp-1407332,1.5064000000000002
Pm2Se3,mp-1232184,1.6191999999999998
Ti2SCl12,mp-649080,1.9342
Li4Fe2SiO7,mp-753109,1.6413000000000002
Na4TiSe4,mp-505798,1.5273
Cs3GeSe3,mp-1193194,1.6321
FeSeO4,mp-754639,1.6350999999999998
UH18C4N10O13,mp-1199760,1.7439
BaSrLaBiO6,mp-1520966,1.9044
Li7VO5F,mp-752966,1.8857
NaFeO2,mp-21880,1.6367000000000005
Mn3ZnO7,mp-1210738,1.8874
Ca2CrH3(IO5)2,mp-1214456,1.5036
K3MgSbS4,mp-2223708,1.6743
LiVF5,mp-755750,1.5588000000000002
LiVPHO5,mp-850399,1.9456
Nb2O5,mp-10426,1.8452
Li6VO5F,mp-765511,1.9528
SnF3,mp-1375229,1.8014
K3ErMgV2O8,mp-2232149,1.7368
Mg2SbWO6,mp-1344776,1.673
LiV2P3O11,mp-32516,1.5572999999999997
Al2CdTe4,mp-7909,1.6245000000000005
BaSrYWO6,mp-1519448,1.8616999999999997
K3UH6C5SNO13,mp-605461,1.6805
Na42Nb16Zn8Si33(SO48)3,mp-2714509,1.8129
Mn2NbFeO6,mp-1221840,1.5060000000000002
VZn(SiO3)2,mp-1041874,1.7731000000000003
P5HC(NCl6)3,mp-703293,1.9789000000000003
FeAgP2O7,mp-1202376,1.8448
ZnAgAu2,mp-1095900,1.6909999999999998
Ce4ThO10,mp-766123,1.7909000000000006
MgMn3NiO8,mp-2226836,1.5339999999999998
Na15Nb5Zn7(PO4)18,mp-2713203,1.991
Ga3Bi5Cl12,mp-29075,1.8012
Cs3GeAsSe5,mp-582708,1.7514000000000003
KBaSbSe3,mp-1190698,1.7736
MgFe4(PO4)4,mp-2237270,1.7013
Sm2SiTeO4,mp-6055,1.8484
Li3MnP2(O3F2)2,mp-1199210,1.7453
Re2Pt(CO)12,mp-614325,1.8279
Na2ZnSnP2SO12,mp-2713252,1.9193
Cr4P2O9,mp-772202,1.7710000000000004
Sn(PCl6)4,mp-685443,1.544
Pr2MgSe4,mp-1232189,1.5799
LiFe2(PO4)2,mp-766464,1.7438000000000002
Nb2Co4O9,mp-1276507,1.8793
LiLa2MoO6,mp-19377,1.5043000000000006
LiMn2PO5,mp-776397,1.83
NaInS2,mp-20289,1.8377
AlVO3,mp-1248251,1.6791999999999998
LiFe6(OF2)4,mp-1235528,1.6187
Ir2(Se3Cl2)3,mp-1196619,1.5989000000000002
Cd2Si5N8,mp-1247495,1.6550000000000002
Li3SbS3,mp-775804,1.9915
CsMn2V2ClO7,mp-561100,1.8949
Li6Cr3P6WO24,mp-758279,1.5734
NaCr(PS3)2,mp-1210128,1.6163999999999996
K3GeSe3,mp-14435,1.8279
Sr5Ti9O23,mp-1197010,1.8845
GeClO2F5,mp-557432,1.7275
Mg6CoNiO8,mp-1032269,1.7108999999999996
ZnS,mp-1202959,1.9925
K2FePCO7,mp-773453,1.8518
KAuS5,mp-3592,1.7779
CoTe2O5,mp-765473,1.8424000000000005
CsPbBr3,mp-600089,1.7819000000000005
SbCl(OF3)2,mp-560354,1.9238
LiMn2OF3,mp-861572,1.8355
CaSO6,mp-1182616,1.7942
CoBi6(SO8)2,mp-1296272,1.9022999999999997
Cs2PdCl4,mp-1078085,1.839
KMg30MnO32,mp-1038146,1.5440999999999994
Sm2MgSe4,mp-1232061,1.5802
MgTi2(Fe2O5)2,mp-2229085,1.6027000000000005
HN,mp-684592,1.8061
CsTaPS6,mp-555592,1.5395
Li9Co3P8O29,mp-584450,1.5143
LiFe2(BO3)2,mp-760352,1.543
Ti9SnO20,mp-761148,1.7902
Nd2MgCr2O8,mp-2241016,1.7066
MgAg4Te8(MoO12)2,mp-1234308,1.8628
TbFe3(BO3)4,mp-18979,1.9305
Li2VSiO4,mp-753346,1.75
BaNaCeBiO6,mp-1519625,1.6438
NdIO9,mp-1211462,1.6323
ZrHg3(SeBr3)2,mp-569970,1.9368
NaV2O4F,mp-1220916,1.6860000000000002
Cs2U2O7,mp-1226208,1.6135000000000002
Zr7VO16,mp-861179,1.7786
Na3Ca3TiPS5O24,mp-2713683,1.8988
CaVFe(P2O7)2,mp-1233809,1.9354
Li2FeOF3,mp-780672,1.9802
PtS2,mp-762,1.5467000000000004
Cs2Na3TlO4,mp-562541,1.5574
MgV2(OF3)2,mp-2217802,1.9359
Na2Ga8SiS11O48,mp-2714087,1.8304
CaFe6(OF2)4,mp-1233207,1.8132
Sr2VAs2O9,mp-1218545,1.8583
K4Nb2S10O,mp-558475,1.5316999999999998
ZnFe2H28(S2O15)2,mp-1196074,1.6923
Ba3TaN3Cl2,mp-1195508,1.9944
LiTi3VO8,mp-753531,1.5416
LiVOF3,mp-756068,1.8378
CaPrMgBiO6,mp-1522801,1.6036000000000006
Li2CrNi(PO4)2,mp-757714,1.7405
Be(NF2)2,mp-735436,1.7773
VHg4P2O9,mp-555798,1.5856
Sr4BrN2Cl,mp-1218378,1.8938
NClO,mp-726023,1.7415999999999998
Na2Pd(SeO4)2,mp-559068,1.5109
Y2MgV2O8,mp-2218316,1.6961000000000004
NaV3H6(SO7)2,mp-1984978,1.9766
Cs2LiBiI6,mp-1112838,1.9323
Cs2NaAlH6,mp-989642,1.9338
LiMn(PO3)4,mp-31950,1.7367
Ca2YVO5,mp-1047440,1.6137
Mn2Nb2Zn2O9,mp-554400,1.7460999999999998
Si2SN2,mp-1247315,1.6688000000000005
MgHAu2F11,mp-1202806,1.6864
Li2VSiO4,mp-766405,1.6609999999999996
Na3NbZnSi(PO6)2,mp-2715454,1.8679
UH18C7(N2O3)4,mp-1196270,1.9867
LiFeSiO4,mp-859102,1.7211999999999998
Zn2CoWO6,mp-1282826,1.6911999999999998
U2V2O11,mp-505253,1.9082
BeCrO4,mp-772665,1.6855
LiGdS2,mp-1222370,1.6532000000000004
Tl2S5,mp-30520,1.6678999999999995
Mg2TaFeO6,mp-1345547,1.999
SrLa7TiGa7O24,mp-532565,1.7512
CuH36S8N11O18,mp-1199734,1.6715
Y2HgO4,mp-756103,1.7541
AlCo(WO4)2,mp-1252502,1.6189999999999998
Na4CO4,mp-552552,1.5419
LiAgF2,mp-752927,1.6817
Lu2FeCoO6,mp-1247745,1.7945999999999995
Li4VCr3O8,mp-769608,1.9311
FeMoHSeO7,mp-1202896,1.6635999999999995
Li3NbS4,mp-769059,1.7980999999999998
ZnSb3XeF23,mp-1196112,1.6604
Na3CrCl6,mp-28360,1.7196
Na6Sc4Si5Sn4S7O48,mp-2716035,1.5775
CsEr2Cu3S5,mp-18540,1.5316999999999998
H4C(N2O)2,mp-1204989,1.7294
BaSrMg(FeO2)4,mp-2232255,1.6244999999999998
TmMgSb(PbO3)2,mp-2240173,1.9594000000000005
YNbSi(SO6)2,mp-2713406,1.5678
Na9Sm(GeSe3)4,mp-1220845,1.7108
Cs3Ge2Sb3O13,mp-1226537,1.7817
LiTeO3,mp-755231,1.8899
Na2W2O5,mp-1097712,1.7199
Li2VFe(P2O7)2,mp-1177778,1.8187
K2ZrS4,mp-560331,1.8944
Zn3H24C12Br11O6,mp-1194720,1.5606
Dy2VO5,mp-1200746,1.7473999999999998
Na3CaNbSi(PO6)2,mp-2715418,1.8237
H26Pd4Pt(C11O8)2,mp-1195183,1.8833
K2PtCl4,mp-22934,1.8196
Na2FeAgF6,mp-1111331,1.7821
TaTeBr9,mp-29716,1.9637
Ge2MoO6,mp-1043318,1.7760000000000002
Na3TlO2,mp-29454,1.8471
UTl2(TeO4)2,mp-556389,1.8419000000000003
ZnBiAsO5,mp-1047032,1.9212
In3SnI5,mp-28871,1.8891
CuP4S3Br,mp-1197804,1.7399999999999998
Na8MgSi5Ge3SO24,mp-2715713,1.6106000000000005
Ba2LiReN4,mp-10555,1.7902
CsCu3S2,mp-7786,1.6846
MgV6(HO3)6,mp-1234801,1.598
Mn(HO)2,mp-23789,1.9589
Co2AsHO5,mp-1202958,1.9639
MgP2WO7,mp-1342565,1.9937000000000005
K2Zn(SnSe3)2,mp-1195072,1.5684000000000002
Ba2Fe2S2OF2,mp-551403,1.8181000000000005
LiY2(FeO2)4,mp-1235592,1.9588
MgGe2WO6,mp-1043309,1.5448
MgCr6O16,mp-2224867,1.5282
CsMg30WO32,mp-1039763,1.9441000000000008
MgP2W2O9,mp-1041003,1.8542000000000003
MgH12C4(S2O3)2,mp-1202028,1.8952
NbFe5(PO4)6,mp-771326,1.9188
Li2CrF6,mp-1180673,1.6888
Li4MnF7,mp-753997,1.7626
TaCu3TeSe2S,mp-1218006,1.5847000000000002
Li3V4(OF3)3,mp-775947,1.5359
LiV4(PO4)3,mp-758417,1.7855999999999996
Li3BiS3,mp-766409,1.7663
Cs2NbCuSe4,mp-15223,1.6350999999999998
SrTiO3,mp-776018,1.7362000000000002
Hg,mp-611219,1.7611
NaMg2Nb2P3(SO8)3,mp-2716532,1.5319999999999998
Sr2MgZn2Sn2(PO4)4,mp-1233121,1.5769999999999995
K2NbCuS4,mp-9763,1.9582
Na2S5,mp-28127,1.7772
Pb4SeBr6,mp-655489,1.9666
Li3CuS2,mp-753737,1.981
LiVCO4,mp-1176541,1.7905000000000002
Na2TcF6,mp-1078535,1.5541
NaFeSnO4,mp-1221058,1.8559
In2GaBiS6,mp-556231,1.8499000000000003
BaNaTiNbO6,mp-1227835,1.5650999999999995
LiVH2OF5,mp-752723,1.9578
KP15,mp-1211471,1.5227000000000004
Ba4SnGe2(S4Br)2,mp-1228355,1.9955
LiLa2Ti2CrO9,mp-766086,1.9220999999999997
K2NbCuSe4,mp-9003,1.6164
V3OF11,mp-781011,1.8989
Sr3CaTi4O12,mp-1218577,1.9214
UCl6,mp-23250,1.5811
Nb3AlSi3(SO8)3,mp-2713733,1.7176999999999998
Li2BiBO4,mp-768731,1.9029
Cs3ClO,mp-562420,1.6127999999999998
K3V3O8,mp-18761,1.5456
LiVO2,mp-1176523,1.5373
BaCaMnF7,mp-1047948,1.7916
Ti3Sb2(PO4)6,mp-774763,1.9142