pretty_formula,material_id,band_gap
Cs2VF6,mp-27239,1.8264
K3HoMgV2O8,mp-2228647,1.7641000000000002
Al2ZnS4,mp-1247884,1.5436
MgSn(GeO3)2,mp-1043036,1.8365000000000005
MnO2,mp-25223,1.521
Pd(SCl3)2,mp-28174,1.7553
BaTe,mp-1000,1.593
Al4Co13Si2(SbO14)2,mp-1044552,1.8638000000000003
Na9Mg5Nb7Si9(SO8)9,mp-2714705,1.5627000000000002
Sb4Cl13F7,mp-1219579,1.5991
K2Ce(NO3)6,mp-561127,1.5245
Mg2Nb4Si3(SO6)6,mp-2713513,1.6625
ErCuS2,mp-12454,1.6292999999999995
BaSrGdVO6,mp-1519521,1.5448
Ca2V3Ni2AgO12,mp-705890,1.79
KCrF3,mp-1180767,1.5720000000000005
Ho3Fe5O12,mp-781609,1.6689999999999996
Li3Al2VO6,mp-770362,1.911
LiMn(PO3)4,mp-540331,1.5583
LiVF3,mp-753024,1.9761
RbBiAs6H24C8(S6N)2,mp-556621,1.8746
CsSmGeSe4,mp-1192812,1.6665
Tl2CS3,mp-557251,1.7631
TeS3N2,mp-1192539,1.5236
Ti3Zn2O8,mp-37995,1.8044
NaTi2Sn2P5SO24,mp-2716215,1.9676
Cd(PO5)2,mp-1182043,1.943
La2MgZr2O8,mp-1223309,1.8306
CuN3,mp-27954,1.5383
Mo2P2O11,mp-1101589,1.9922
Li4Cr3FeO8,mp-754241,1.9622000000000008
NaMnFe(PO4)2,mp-1173592,1.5082
AlAg(WO4)2,mp-1047674,1.5337999999999994
SrNd2Ti4O12,mp-1218162,1.7245
MgFe3(PO4)3,mp-2230031,1.9866
P,mp-1198724,1.9259
SbAsPCl13,mp-569209,1.8936
Li3Fe4(BO3)4,mp-754325,1.5164
SrScCu3Se4,mp-1179075,1.6882
K2Mg4U3(H13O12)4,mp-1202138,1.7029
TiCo(PO4)2,mp-752800,1.8653
BaSrDyBiO6,mp-1516677,1.8030000000000004
U(BiO3)2,mp-548598,1.593
Li2AgF3,mp-752793,1.9648
KCo2As2HO8,mp-746371,1.8807
SrAlCu3Se4,mp-1179174,1.6573000000000002
LiVF5,mp-767589,1.9594
NdMgCu(WO4)2,mp-2218758,1.8024
KCaCeBiO6,mp-1518216,1.6069999999999998
Rb2ZnO2,mp-555977,1.7574999999999998
S(IN)2,mp-1179634,1.6295
Ba2LaBiO6,mp-1520455,1.9852
Li4Mn3P4(HO8)2,mp-779055,1.8572
Na8Y2Zr2Si5SO24,mp-2715531,1.698
MgFe2(HO2)2,mp-2217204,1.5702999999999996
SbH4NCl6,mp-849325,1.9394
Rb2CaNd2(WO4)4,mp-1234177,1.9198000000000004
RbSiBiS4,mp-560051,1.9806
Rb2Sn2Hg3S8,mp-561434,1.6569999999999998
La2MgS4,mp-1232281,1.7443
BaSrLaBiO6,mp-1522224,1.8136
U3(HO5)2,mp-626114,1.8678
UH4(BrO2)2,mp-1203105,1.6692
Mg30AlNiO32,mp-1038314,1.7857000000000005
InI2,mp-29312,1.7863000000000002
V2ZnO5,mp-1388425,1.8387
RbLiMg14O15,mp-1035690,1.5033999999999996
Li3FeO3,mp-770886,1.6343
UO3,mp-294,1.8855
K7LiSi8,mp-3949,1.6927
Na2VPCO7,mp-770717,1.7865
Ba2LaBiO6,mp-1078409,1.8278
RbTaPS6,mp-680498,1.7240000000000002
Ca(SbO2)2,mp-1044820,1.6395999999999995
S3N,mp-1209413,1.6651
Ca2CeO4,mp-755597,1.875
Sc5(GeN3)3,mp-1247007,1.8617
Li2MnPCO7,mp-1177960,1.8388
Na2LiVPO6,mp-760057,1.9371
CaFe(GeO3)2,mp-1043877,1.7226000000000004
Re3Se2Br5,mp-1173441,1.727
CsAgBr2,mp-571100,1.7972
Mn3V2O8,mp-1221916,1.8165
Ba(AgO)2,mp-1096838,1.7273
Li3TiFe3O8,mp-758622,1.8882
Ba3MgNb2ZnO9,mp-2232814,1.5280999999999998
Na3WN3,mp-16839,1.7694
V4O5F7,mp-849292,1.6077
CaCrF6,mp-557519,1.5339000000000005
Ta6Pb4O19,mp-863066,1.7422999999999995
SiC,mp-567551,1.970600000000001
V2(OF)3,mp-2215029,1.7625
Pm2MgS4,mp-1232264,1.9562000000000004
Nd3Y3(Fe5O12)2,mp-1220842,1.989
Li2CrFeO4,mp-756242,1.6771999999999996
MgTl4V4(TeO5)4,mp-2220594,1.5127000000000002
Na8Mg(FeO4)2,mp-2230529,1.9428
Rb3InO3,mp-761025,1.7373000000000005
Li4Co(OF)2,mp-850355,1.5844
Na12Nb4Zn2(SiO4)9,mp-2716563,1.996
InHO2,mp-632711,1.8668000000000005
Li4V3O8,mp-1314586,1.7335
Na7Mg2Nb2Si3(PO8)3,mp-2714801,1.7219
BaTi2Fe4O11,mp-1227638,1.6364
Ba2SmVO6,mp-1517444,1.6287000000000005
Ag2W2O7,mp-32537,1.9614000000000005
Co3C2(SeO5)2,mp-552260,1.9791
Rb2ZrS4,mp-558772,1.9236
MgV2(CO3)4,mp-2228787,1.6349000000000002
Y6UO12,mp-27698,1.9558
K3Er7S12,mp-1224251,1.8393
MgZn2(FeO2)4,mp-2232624,1.89
Na6Mg2Zr2Si3(SO8)3,mp-2716268,1.8866
Na6MgTi7Si6(SO8)6,mp-2714718,1.6961000000000002
BaPrTaCoO6,mp-1227898,1.6852999999999998
BiAuCl6,mp-567414,1.6272
Cs2CeCl6,mp-1101094,1.8236
K2MgFe4P6(O4F3)4,mp-1233950,1.7159999999999995
Ba2CoWO6,mp-1274542,1.8427
KSn2H36C12(Se2N)3,mp-708999,1.8887
TlH6(NO4)3,mp-696189,1.8483
Cs3Nb2S11,mp-669313,1.5397
H8RuN3Cl5O,mp-1212914,1.8003
KLaDyBiO6,mp-1522772,1.9268
Ca2Sb2O5,mp-1344288,1.5487000000000002
VP2O7,mp-26888,1.5248
MgTe4Pb6(BrO3)4,mp-1233562,1.9338
K4Na2H18Pd(IO10)2,mp-757218,1.6804
NiGe3O8,mp-543103,1.7038000000000002
LiAlSiH2O5,mp-555706,1.7217999999999998
CsAgSb4S7,mp-554408,1.6887
K3SiTe3,mp-7657,1.7179000000000002
CdC3NCl3,mp-1199754,1.9515
Ag3N5O6,mp-562667,1.9021
Mg14MnCdO16,mp-1036069,1.5675999999999997
CaSnS3,mp-1100335,1.8767
Na6Sc4Nb4Si7S5O48,mp-2713062,1.6408
KCePrGeO6,mp-1522582,1.9978
NbAgO3,mp-5537,1.7878999999999998
Sr2YVO6,mp-1517134,1.6134
Bi2O3,mp-1204405,1.9197000000000009
LiVPO5,mp-1293121,1.5127
GaCuBr4,mp-1212660,1.9902
NdI3,mp-864617,1.8067
SrCo2Te3(ClO4)2,mp-562378,1.8677
LuSeF,mp-1210620,1.9077
Li3La5Ti6Nb2O26,mp-774524,1.8564
MgCrF6,mp-1233757,1.6087
Ce4SnO10,mp-1226901,1.5555000000000003
Li2VO2F,mp-1290831,1.5731000000000002
Ca3AsBr3,mp-27294,1.6726
Cs3AuO2,mp-572441,1.7399
Na7La7Th2Ti18O54,mp-1173844,1.9245
K2RbTbMgV2O8,mp-2232136,1.5741
NaTaSi3Sn3(SO8)3,mp-2714015,1.5455
H2CS3,mp-28399,1.9797
Th(NF2)4,mp-725941,1.7889
Ca2Fe3Sb(PO4)6,mp-695492,1.8767
Ga2BiSe4,mp-571085,1.8901
Li6V2OF11,mp-1378948,1.8051
MgV2(OF3)2,mp-2217918,1.9687
Sb2TeSeF10,mp-557635,1.5148
Ti4SnO10,mp-766168,1.7655000000000003
TlCuPS3,mp-1190539,1.9735000000000005
Na3Ca3SnPS5O24,mp-2712723,1.8622
Fe3H4(S2O9)2,mp-696936,1.6592000000000002
NaFe3O5,mp-505170,1.5371
CaSiSnO5,mp-726359,1.5452000000000004
MgTiMnO4,mp-2227189,1.9813000000000005
LiCa2Nb3O10,mp-766983,1.6329999999999998
Li5Fe3(CoO5)2,mp-752962,1.6507999999999998
LiVF5,mp-760330,1.5804
YBCO7,mp-726274,1.7928000000000002
TeAs(IF2)3,mp-555034,1.6832999999999998
CrFe(PO4)2,mp-772167,1.8281
Na3InSi2GeSO12,mp-2714343,1.9225
TaNb(AgO3)2,mp-1217947,1.7114000000000005
TiPb9O11,mp-674350,1.7973
VOF,mp-753200,1.9991
HoFeO3,mp-19785,1.5675
K3Nb2Cu3Se8,mp-1202743,1.6021
RbFeO2,mp-754958,1.797
BaDy2CoO5,mp-19364,1.8435999999999997
Fe8H10O17,mp-1182698,1.7452
MgV2(OF3)2,mp-2217755,1.6087
Li7VN4,mp-582259,1.9388
Cs2Cr(NO3)5,mp-560716,1.9524
Gd(C2N3)3,mp-672360,1.8058
USeO5,mp-27723,1.5298
Na2VSiCO7,mp-772154,1.6193
Li4Co3OF8,mp-759351,1.6506999999999998
CsLi(H2N)2,mp-642740,1.997
Ba5Mn3O12F,mp-1214575,1.8397
NaCr3O8,mp-19280,1.791
FeH12(NF2)3,mp-699478,1.6323
NdCu(WO4)2,mp-1179980,1.5619
LiSbO2,mp-755703,1.6694999999999998
Re(TeBr2)2,mp-662556,1.9379
LiVFeO4,mp-772649,1.9967
LiFe2(BO3)2,mp-764679,1.696
Mg(ScS2)2,mp-1232119,1.8148
MoH9S2(ClO)4,mp-1201166,1.7119
KSbS2,mp-11703,1.601
BaCaPrBiO6,mp-1522866,1.6967999999999996
Cs2LiCr(CN)6,mp-20988,1.7169
KLaYBiO6,mp-1519780,1.7059000000000002
LiVFe(P2O7)2,mp-759801,1.5942999999999998
Li4Nb2V3Fe3O16,mp-762676,1.5942000000000005
ZnSn2(PO5)2,mp-1043492,1.8704999999999996
Ta2WO8,mp-1046357,1.6635
AlW3O8,mp-1041957,1.9248
B2(CN2)3,mp-989466,1.9254999999999995
Na7MgNb3(SiO4)6,mp-2712873,1.9441
VZnSe2O7,mp-556959,1.971
Na2Mn3Cl8,mp-27126,1.9228
SrLiLa3MnO8,mp-753433,1.6632999999999996
BaLa4TiCr4O15,mp-1227678,1.9094000000000009
Ba16Nb5N19,mp-30001,1.6979000000000002
Rb4Mg(FeO2)4,mp-2228931,1.6254000000000002
Sr2Mg(MoO4)2,mp-2219849,1.5864999999999996
CoH18C2(NO)16,mp-1198099,1.8012
SrCuTeF,mp-1091416,1.5171
RbNaMg30O31,mp-1039826,1.9137
Fe2(TeO3)3,mp-540592,1.8629999999999995
Mg2MoWO6,mp-1047170,1.9489
Ca4Bi6O13,mp-757343,1.8462
Mg(SbO2)2,mp-1044887,1.7496
Cs2O2,mp-7896,1.6496
LaTaBi2O7,mp-1222976,1.9634
Na2SrV3O9,mp-557927,1.9857
Li2VBPO7,mp-771701,1.5137
Li2Ti3MnO8,mp-774582,1.7513000000000003
HfFeO3,mp-753790,1.8282000000000005
Li2VFeP2(HO5)2,mp-1177768,1.8858000000000008
Sr(VN2)2,mp-1246716,1.7094999999999998
Mg16Si8HO32,mp-1248719,1.9037
K2RuNCl5O,mp-560966,1.7638
KCuS,mp-28270,1.8615
Ba2SrTi3O9,mp-1228362,1.8073
CaLa2Fe2(TeO6)2,mp-1234351,1.8552
YV(TeO4)2,mp-1194912,1.5133
Li3Fe8(BO3)8,mp-1177681,1.6148999999999998
Sr2Mn2SeO4,mp-1201675,1.8317
Tl2TeI6,mp-31077,1.6843999999999997
KPSe6,mp-18625,1.8828
KMg14BO15,mp-1035758,1.5846999999999998
K2NaNb3O9,mp-1224011,1.9676
ErInO3,mp-772217,1.9560000000000004
LiFeCO4,mp-757567,1.6555000000000002
K2Mg(CoO2)2,mp-2222778,1.5473
LiFeP2O7,mp-26717,1.9186
MgCr2Fe3Ni(PO4)6,mp-1234418,1.8945
K3Nb2Cu3S8,mp-581419,1.8542
Li4CrFe3O8,mp-768701,1.8474000000000004
La2Nb2N2O5,mp-849661,1.5557
MgCo(GeO3)2,mp-1043149,1.7168
Ca2YFe4SbO12,mp-743862,1.6679999999999997
NaMnO4,mp-759794,1.6829
Ag2Bi2S3Cl2,mp-559071,1.6367999999999996
LiFeSiO4,mp-762643,1.6568999999999998
BeZn3O4,mp-1227367,1.5432
Li4VF8,mp-759896,1.8244
LiMg14FeO16,mp-1035445,1.79
CrNiAg2F7,mp-1213740,1.6573999999999998
VIn3S4,mp-1120732,1.5702000000000005
Rb2NaNb6(PO8)3,mp-677731,1.9757
Li9V3(WO4)7,mp-777624,1.5507
Na8Zn3Si3Ge(SO8)3,mp-2714955,1.6145999999999998
Mg30SiNiO32,mp-1036956,1.7834000000000003
Li2Fe4O3F8,mp-755479,1.9451
Li5Fe5(PO4)6,mp-771125,1.6421
KNb(CuS2)2,mp-1106233,1.7079000000000004
Na2FePCO7,mp-1176603,1.6225999999999998
Li2FePO5,mp-766462,1.8923
CeO2,mp-1018664,1.9046
NaNiIO6,mp-545399,1.7121000000000002
Na4Mg(GeSe3)2,mp-1103730,1.8221
Sr2MgV2(Si2O7)2,mp-1234020,1.8241999999999996
SrCaSmBiO6,mp-1523151,1.6307999999999994
Bi2(CN2)3,mp-1247346,1.5671000000000002
Sr8MgP4(IO4)4,mp-1234747,1.7441000000000004
VIO7,mp-1204378,1.6385999999999998
La4Zn3O9,mp-770296,1.7738000000000005
La3BeInS7,mp-1192038,1.6217000000000006
NaZr3NbSi3(SO8)3,mp-2713813,1.7739
Ga3Bi5Cl12,mp-569854,1.813
Rb4Ca(Se2O7)2,mp-1233791,1.7445
Na2LaNbSi(PO6)2,mp-2712710,1.7258
NdMgCu(WO4)2,mp-2218581,1.9222
SbCl5,mp-23176,1.8399
SiO2,mp-10064,1.7395999999999994
Zr2N2O,mp-775822,1.6751999999999998
Na14Mg5Si6Sn3(SO8)6,mp-2714317,1.6016999999999997
Ba4Tb2Cd3S10,mp-17513,1.9184
SbXeO2F7,mp-1219569,1.9962
Cs2UO4,mp-2991,1.8211
Ba2NaSr2(SbO4)3,mp-1228553,1.8583
Li5NCl2,mp-29151,1.9819
KPrGeSe4,mp-12012,1.6332
NaLaSnP2SO12,mp-2712708,1.7124
K3MgScV2O8,mp-2227375,1.5560999999999998
Li6CrSn3(PO4)6,mp-771364,1.9426
Li3Fe(PO4)2,mp-757649,1.7471
VAg(SO4)2,mp-1207873,1.6570999999999998
InTeCl,mp-504630,1.6633
AlP,mp-1550,1.6294000000000004
Gd3NbO7,mp-1100705,1.6602
Ba3MnSb2O9,mp-17341,1.5103
Li4V3Cr3(WO8)2,mp-756412,1.5726
WS2,mp-1023937,1.8091
Ba2HgS5,mp-1194545,1.6693000000000002
Pt(CN)2,mp-1247533,1.7825
SrCaPbO4,mp-1218368,1.8976
AsXe2F9,mp-637062,1.6500000000000004
Cs3Sb2Br9,mp-579560,1.9837
Na42Ca8Nb16Si33(SO48)3,mp-2714459,1.8574
Rb2MnV2(ClO3)2,mp-1219796,1.9437
H5IO6,mp-625274,1.8659
Li3Fe(CO3)3,mp-765096,1.8912
Ag2SeO3,mp-16913,1.7022
LaCoSbPbO6,mp-1223180,1.5277999999999992
TiFe2O5,mp-20117,1.8448
Cr3Co2As2(CO)20,mp-694249,1.707
Li3MnCoO5,mp-1173955,1.6718000000000002
KUVO6,mp-541148,1.9806
La4FeSe6O,mp-1296462,1.6102
Ba2YMgBiO6,mp-2217356,1.7313
LaMn3Cr4O12,mp-1211359,1.6430999999999996
MgTl2(SbO3)2,mp-2217290,1.5170000000000003
K2Fe2As2O9,mp-619092,1.8765
Rb2TaAgS4,mp-15217,1.8622
MgFe2(HO2)2,mp-2217234,1.6252999999999995
RbV3O8,mp-16864,1.8112
RbCr2FeO8,mp-504649,1.9996
RbLaMnWO6,mp-1105199,1.6904000000000003
K2OsNCl5,mp-1205451,1.8403
Pr8Sb2S15,mp-554935,1.8916
BaFe4O7,mp-1048391,1.6662
Li4Ti3V2Cr4O18,mp-774581,1.5461
Na6Nb4Ga4Si7S5O48,mp-2712952,1.7243
MgInNi2SbO6,mp-2222766,1.8513
TePHO5,mp-756804,1.9317
Bi2O3,mp-1190124,1.7487000000000004
Bi2(CN2)3,mp-1246532,1.9812
Rb3NaH4,mp-1095176,1.5304
Na6Sn2O7,mp-778451,1.839
LaNb3O9,mp-757457,1.5885
TaAl(WO4)2,mp-1042600,1.7815999999999996
Ho2Sb2O7,mp-780448,1.6212
LiFe(SO4)2,mp-780523,1.9547
Li2Ti3NiO8,mp-774680,1.7674000000000003
MgV(WO4)2,mp-2218106,1.8729
FeBO3,mp-1199904,1.5175999999999998
YBi(WO4)2,mp-1042231,1.8528
VAg2(PO4)2,mp-19478,1.812
MgFe3(OF)3,mp-2217075,1.8618
VOF2,mp-760912,1.5104
Li2FeBO4,mp-752412,1.9082
Te3Mo5O18,mp-1046563,1.5547999999999995
Ru(CO)4,mp-616541,1.927
TmCuS2,mp-1189200,1.7568000000000006
Mg(InS2)2,mp-20493,1.7643999999999995
U3Te5(PbO4)8,mp-1217243,1.8788
K3TaNbCu3S8,mp-1224225,1.9736
Na4Sn3S8,mp-29626,1.6505999999999998
MgCr4(WO6)2,mp-2230023,1.8007
LiFe2(PO4)2,mp-754078,1.6052
NaInSiSn(SO6)2,mp-2712550,1.6593
Tb2MgS4,mp-1232141,1.5439000000000005
KNa2BN2,mp-1019888,1.8181
KMg30SbO32,mp-1040192,1.8345
BeCrO4,mp-776431,1.7039
Na5InO4,mp-8840,1.7741999999999998
KSnI3,mp-1097015,1.9381
NbCu3S4,mp-5621,1.6574
Ga4GeS4,mp-531297,1.7283000000000004
Ba(AlTe2)2,mp-28505,1.5444
SrMg30CoO32,mp-1037017,1.5716
Cu3MoH24C8S3I3N2O,mp-1204081,1.9705
LiMn2F7,mp-753592,1.7055000000000002
Li2AlCoO4,mp-754121,1.5069
Y12Si5S28,mp-1216324,1.7466999999999997
TlAs5PbS9,mp-1209142,1.5722
Cr2F5,mp-558380,1.5997
CuP4S3I,mp-554724,1.7032000000000005
NiSnO3,mp-754654,1.7717
Ce2Ta2O9,mp-1213882,1.5320999999999998
Li4Fe3(SiO4)3,mp-1177429,1.7633
MgPb2(WO4)2,mp-2227115,1.9934000000000005
RbIO2,mp-1209265,1.6879
BPb7Br3O7,mp-1201413,1.9254
Cs3MnF7,mp-17040,1.5495
Fe2AsO4F,mp-1224755,1.9064
SiC,mp-568696,1.8139000000000003
KInSe2,mp-1120779,1.5869
LiSbPO5,mp-775867,1.5947999999999998
Rb4Ta2S11,mp-14577,1.7127
Li3MnFeCo(PO4)3,mp-764707,1.9995000000000005
Ba2Na2O3,mp-752395,1.9318
Ce2ZrO6,mp-1226797,1.8408000000000009
VCrO3,mp-770779,1.6807
SbSNCl5,mp-559738,1.7869
YMgMo(WO4)2,mp-2219053,1.8378
Sr2MgZnMoO6,mp-2240103,1.5413999999999994
Cs2Se,mp-1080258,1.5913
Li5Cu(PO4)2,mp-778743,1.7069
LiV4P7O24,mp-1101513,1.844
V(WO4)2,mp-1041824,1.8724
KCa2Nb3O10,mp-557195,1.9568
V5H28C8N13O17,mp-1201428,1.775
Pr3Fe5O12,mp-1197438,1.8327
Na3CaGaSi(SO6)2,mp-2712580,1.7786000000000002
BaFe2F7,mp-1214474,1.8117
Fe(PO3)3,mp-540314,1.6353000000000002
Cd3Fe2(GeO4)3,mp-1215138,1.9028000000000005
HgBr2,mp-571558,1.6827
Zr2N2O,mp-756029,1.7227
RbAuC4S4(OF)12,mp-1200298,1.8291
BaNa2O2,mp-755391,1.5152
LiV(Si3O7)2,mp-774422,1.9559
Li7Mn2(CoO4)3,mp-1174467,1.6734
Na3MgCo2SbO6,mp-2218348,1.9604000000000004
SiC,mp-571286,1.8003999999999998
V2H3O5,mp-625381,1.5180999999999998
NaMo6Br13,mp-680472,1.9979
MgV2ZnO6,mp-2217478,1.9718
Li6VFe3(PO4)6,mp-757753,1.7495
NaYSe2,mp-999448,1.8434
LiLa4Ga2(FeO6)2,mp-1235609,1.8708
Mn2ZnH12(NO2)4,mp-510620,1.5236
Li3As7(H3N)13,mp-1199218,1.8068
Fe4OF7,mp-763484,1.7312
Ca(BiO2)2,mp-1327938,1.7245
ZnAgPO4,mp-1216213,1.8947000000000005
TaTl(CuS2)2,mp-9815,1.7972
Li3BiS4,mp-766422,1.6645
KGeN,mp-1245591,1.6721
DyCrC6(N3O2)2,mp-1213562,1.7875
Hg3(SCl)2,mp-23418,1.9398
MgCoF5,mp-1385961,1.9081
SrV(PO4)2,mp-1046421,1.7375
WCl6,mp-571518,1.9169
Li2VFeP2(HO5)2,mp-1177767,1.7582999999999998
LiAuF4,mp-554442,1.9809
LiMg30CoO32,mp-1037085,1.8732
Li3Fe2(SiO4)2,mp-760096,1.6844
Ba2MgFeWO6,mp-2223651,1.9304
Ba(NdS2)2,mp-866306,1.6426000000000005
NiH6(NO3)2,mp-1210459,1.8616
Fe2(CO3)3,mp-758121,1.6598
FeHO2,mp-755285,1.7408
Ba(GaSe2)2,mp-7841,1.8578
Na10Al4Si7Ge4S5O48,mp-2715922,1.9931
LiFe2OF5,mp-776089,1.9051
K5Na3Ta4Nb4O24,mp-1076095,1.6070999999999998
Ca(BiO2)2,mp-1044682,1.593
P3W2O13,mp-757302,1.8082
Na5Sc3TiSi3(SO8)3,mp-2713487,1.842
Na6Hf4Ti4Si7S5O48,mp-2712849,1.765
Li3Fe4(BO3)4,mp-761202,1.8227
K14W6N17,mp-728225,1.7321
Cs2Cd3Te4,mp-567386,1.5586999999999998
Na2Sc2Ga2SiS5O24,mp-2715743,1.7425
SrP11H28N9,mp-1198273,1.9877
LiVSiCO7,mp-770650,1.8349
RbGdS2,mp-7045,1.7435
NaCaTiFe3O8,mp-1173807,1.9018
MgFe6O7F5,mp-2230457,1.5501
TaZn2BiO6,mp-1378723,1.8737
BaV2(P2O7)2,mp-17519,1.5741
Cd4OF6,mp-28855,1.8997
MoS2,mp-1023939,1.5539
Tb2MgSe4,mp-1232278,1.8789
La2Ti3O9,mp-758038,1.9872
Ba2SmGaSe5,mp-1189376,1.7080000000000002
K2TcF6,mp-1091363,1.7181
Li3Al2VO6,mp-756574,1.9332000000000005
MgFe4NiO8,mp-1222083,1.5092
Na4Al11Si13Ag7O48,mp-695373,1.5011
Na6CaTi3Si4(SO12)2,mp-2714514,1.7594
H6PbCI3N,mp-977013,1.6778
Li2VO3,mp-861577,1.7996999999999996
TbBi5O9,mp-753055,1.6102
Li2AgAsF6,mp-1111365,1.8182
Li2Fe3OF6,mp-849572,1.9706
Gd2MgS4,mp-1232388,1.7146
Ba(TmS2)2,mp-1193579,1.7632999999999996
NbBr3O,mp-606393,1.9659
La2Nb2N2O5,mp-775911,1.8866
Ce2Y2O7,mp-36699,1.7347
Li10Cr3Fe3(NiO8)2,mp-1178099,1.7259000000000002
LiV(OF)2,mp-765509,1.7878
Sr3Tm3Al4Si8N17O4,mp-720205,1.6189999999999998
Fe2MoC10(SeO5)2,mp-624052,1.9283
CaMg30SnO32,mp-1037834,1.8848000000000005
Mg11Mn2O13,mp-753303,1.9335000000000004
Fe38O39,mp-705753,1.5470000000000002
LiFe2(BO3)2,mp-761277,1.6772999999999998
Gd2SCl4,mp-865182,1.5483000000000002
Ho2MnNiO6,mp-1212340,1.8696
Li2VF6,mp-861175,1.7724000000000002
K2AgSbCl6,mp-1110873,1.6025
CaPtO6,mp-1365085,1.9818
NaNbGa3P3(SO8)3,mp-2716430,1.9951
Na21Nb4Zn8Si3(P5O24)3,mp-2715775,1.7345000000000002
LiFePO4F,mp-25407,1.9307
Ce5Zr3O16,mp-1019595,1.8294999999999997
Sr6Sb6S17,mp-16061,1.7409
CoF4,mp-1397055,1.614
TbTl(PSe3)2,mp-1105141,1.5290000000000004
FeOF,mp-759592,1.6225
Fe2Sb(PO4)3,mp-849513,1.8952
UTl2Cr2O10,mp-641100,1.7155
Li3Ni5OF11,mp-1367449,1.5166
U(ClO)2,mp-23013,1.7799
Rb2WS4,mp-17048,1.9936000000000005
FeHO2,mp-625220,1.9986
CaC2,mp-570697,1.7605
LiLa4CoO8,mp-1298961,1.5333000000000006
Hg9(AsO4)4,mp-541164,1.7613
LiV(PO4)2,mp-32465,1.961
NdFe3(BO3)4,mp-18936,1.9396
Cd3PCl3,mp-29415,1.8279
Sr6La14Mg7Ti13O60,mp-691028,1.8065
Sb(PO3)4,mp-1045606,1.6088000000000002
Cs2Se,mp-1080254,1.8269
Li3Fe8(BO3)8,mp-764513,1.6684
K4Mg(MoO4)2,mp-2232548,1.5548000000000002
Rb4CO4,mp-545760,1.7482000000000002
Mg30MnCrO32,mp-1037910,1.6973999999999991
Li4V2SiGeO10,mp-766048,1.9796
K6HgS4,mp-5114,1.7161
Li5SbS,mp-775372,1.5770000000000002
Nb2MoO8,mp-1046942,1.6481
LiMnBO3,mp-756752,1.9726
Sr2LiReO6,mp-12525,1.5935
KLaMg14O16,mp-1033981,1.9263000000000003
Ca2NF,mp-2646991,1.9759
NaNbO3,mp-1195803,1.6547999999999998
Rb3TlBr6,mp-1114103,1.5276
Mn4OF6,mp-752976,1.9792
Si3N4,mp-40793,1.8186
LiMoO2,mp-690493,1.8222999999999996
WO2,mp-1380432,1.6779999999999995
Li3Fe2CoO6,mp-1303115,1.8732
SmTlO2,mp-754933,1.7217000000000002
Ba(NdS2)2,mp-34459,1.9232
K2NdCuI6,mp-1110945,1.8245
Na2Nb5Ga3Si6(SO8)6,mp-2714013,1.5900999999999998
NaMgTiP(SO6)2,mp-2714346,1.834
KNb4InO12,mp-1522445,1.7758
Li3V4P2O8F9,mp-758610,1.804
KV2CrO7,mp-557215,1.8417
Na3CaTi3P5SO24,mp-2716000,1.9094
AgAsS2,mp-542609,1.5178999999999996
Cr2CdO4,mp-19262,1.8717
CaBiIO2,mp-1227238,1.6177
LiGaTe2,mp-5048,1.5885000000000002
Br2O3,mp-28933,1.7587
NaTi2Al2P3(SO8)3,mp-2716556,1.8119
LiCuS,mp-1407369,1.5952000000000002
MgV2O4,mp-2225302,1.6504000000000003
HW2C9NO10,mp-1224650,1.8539
Cs2S5,mp-1193140,1.8662
MgFe6O7F5,mp-2230928,1.6948
WS2,mp-1025571,1.6345
Pr2MgS4,mp-1232091,1.9715
Ba2PrMgSbO6,mp-2226456,1.6098000000000003
CrH12N3O8,mp-1194835,1.8408
Li4Mn3OF8,mp-764336,1.749
Li2VP4O13,mp-704203,1.8286
Y3CuSiS7,mp-561173,1.7371999999999996
CsMn4Cl9,mp-567499,1.8802
Na2U2Si(O4F)2,mp-560638,1.75
K2S2NO7,mp-555388,1.961
RbMnO4,mp-18301,1.8853
Rb2MnP2H3(O4F)2,mp-1220230,1.9783
MgFe4(PO4)4,mp-2234874,1.8337
Co2SnC8SeO8,mp-1199318,1.81
LiFe2OF5,mp-753068,1.733
Mg(FeO2)2,mp-753198,1.6065000000000005
Zr2N2O,mp-755205,1.7534999999999998
Na7SbO6,mp-760311,1.7517
Li2Mo(PO4)2,mp-583981,1.9317
Li2MnCr(PO4)2,mp-757355,1.9013
Al3Bi5Br12,mp-645282,1.5953
SrTi2O5,mp-572124,1.9511
RbHgC3(SN)3,mp-669543,1.9419
ZnGeN2,mp-1029779,1.5235
Ca2TiMnO6,mp-1227706,1.9470000000000005
SbO2,mp-560098,1.9573
RbPbBr3,mp-998176,1.7508
LiFe4(BO3)4,mp-774381,1.7777999999999998
CaCo(GeO3)2,mp-1043170,1.935
Hg4P2O7,mp-29710,1.5884999999999998
Li2V2OF6,mp-753071,1.5524
LiMnF4,mp-1176638,1.9577
LiErSe2,mp-15797,1.6151
Dy2Mo3H2Se2O17,mp-1203751,1.6412
Si2H2O3,mp-627206,1.5458000000000005
Rb2LiMoCl6,mp-1110668,1.5379999999999998
Li3Cr(CoO3)2,mp-1283691,1.7898999999999998
Tb3Fe5O12,mp-19710,1.7775000000000003
Li2CuP3(HO5)2,mp-849277,1.6397
Na3LaTiSi(PO6)2,mp-2715357,1.8737
Cd2Mo3O8,mp-1213890,1.5881000000000003
SeS7,mp-1219328,1.8983
WBrCl3O,mp-1216192,1.9672
LiFe6(OF2)4,mp-1235542,1.7032
YTi(WO4)2,mp-1042631,1.7108000000000003
Li5AuO4,mp-757242,1.9588
MgFe3Ni2Sb(PO4)6,mp-1234314,1.9450000000000005
Na2La4Ga4SiS11O48,mp-2714312,1.7496
SrLaMnNbO6,mp-1218213,1.8725
K2WS4,mp-1211879,1.9435
U7(Te12O35)2,mp-530749,1.5766
Li3V(TeO3)4,mp-756304,1.6770999999999998
Ba2La2MgTi3O12,mp-695403,1.9234
MgMo2(Pb2O5)2,mp-2229267,1.7824999999999998
TlAs5S8,mp-28442,1.5672
KAgCO3,mp-672695,1.5687000000000002
V2NiO6,mp-28162,1.5548000000000002
PrCu(MoO4)2,mp-555912,1.9748
BaGdInWO6,mp-1516504,1.6715000000000004
FeF2,mp-556911,1.6921
Li3SbH18S4O9,mp-777963,1.8864
Si6Bi3N11,mp-1247410,1.6079999999999997
MgAlSbO4,mp-2226391,1.5688000000000004
Li4V2SiO8,mp-766040,1.5021999999999998
BaCaTbBiO6,mp-1518633,1.7212999999999998
CeSnO4,mp-1226511,1.6880999999999995
Li4Co3WO8,mp-754232,1.6459999999999997
Na6Ca3U2O12,mp-1220825,1.8352
Ta2MnO6,mp-760053,1.9697
BaMg30CO32,mp-1038610,1.8598
Li4Cr3CoO8,mp-1317623,1.6271000000000004
Li2FePO5,mp-861176,1.626