pretty_formula,material_id,band_gap
Ca(MoO2)2,mp-1042245,1.8193000000000008
K6Se2O9,mp-559613,1.6318
Ta2Co4O9,mp-773173,1.7211000000000003
CaNbP(SO6)2,mp-2712989,1.9806
Rb6Ta4S25,mp-680284,1.5576
NaSbO7,mp-1180855,1.7035999999999998
SnBr2,mp-978985,1.656
Li5Fe2P2(CO7)2,mp-768720,1.5793
TlAgAs2PbS5,mp-677611,1.5879999999999996
MgFe3PO7,mp-2218198,1.9821
KZn4(SbO4)3,mp-863678,1.6514000000000002
LiNbFeO4,mp-1274978,1.6567
Sr2VN3,mp-17012,1.5183999999999995
Dy2TeS2,mp-1225289,1.8358000000000003
TaCu3Se4,mp-4081,1.5980000000000003
Mg14CdCoO16,mp-1035067,1.9117000000000008
Sr3CrN4,mp-7214,1.5373
LiVSi4(HO6)2,mp-761158,1.7726000000000002
S2N2O,mp-504826,1.916
Sr2LaBiO6,mp-1518084,1.7340999999999998
Gd3AsO7,mp-767398,1.7693
SbPH2F10,mp-1237318,1.9189
Hf3TePb4O13,mp-1224517,1.7083
Rb4Ge9(H3N)5,mp-759330,1.7529
Li2FeO2,mp-755094,1.7893
Na4MgO3,mp-754369,1.5485
Na3InSi3Ge3(SO8)3,mp-2714811,1.697
LiFe4(BO3)4,mp-761235,1.5443
Mn2Cr3FeO8,mp-1222018,1.7368
Na18Ta4Zn20Si3(S11O48)3,mp-2713301,1.6349
Ba(TbS2)2,mp-1193223,1.7572000000000003
Li5Mn2Fe3(PO4)6,mp-757441,1.9183
SrMg30SnO32,mp-1036672,1.7466
Dy12Si5S28,mp-1225718,1.6467
CaNbFeSnO6,mp-1521662,1.8048999999999995
NaMn2V3(PbO6)2,mp-706292,1.9277
LiFeP2O7,mp-849452,1.7432
Pr4(GeS4)3,mp-542269,1.9961
LiCa2ReO6,mp-1205694,1.5831
Nb2SnO6,mp-3324,1.7399
Na7Nb3Zn(SiO4)6,mp-2712832,1.7229
Li2Mn3OF6,mp-759714,1.7183
Rb2Ti(TeO4)3,mp-1219756,1.524
Na2TaIn3Si2(SO6)4,mp-2712554,1.8073
Li2U4W4O25,mp-557893,1.632
Ce3Zr5O16,mp-1019589,1.7776
VPO5,mp-556459,1.9352
RhSCl5,mp-1179727,1.5419
Ca12Al14O33,mp-530149,1.9095000000000004
CaFeSbAs2O7,mp-557398,1.7991
Sr4BrN2Cl,mp-1218383,1.8982
Li3BiS3,mp-753520,1.9803999999999995
Sn7(SO10)2,mp-728585,1.5620999999999998
Li2AlCoO4,mp-1178049,1.7803
LiCoPO4,mp-757780,1.756
LiV3(P3O10)2,mp-26707,1.6916999999999998
Rb2Sn3(SbS5)2,mp-1194540,1.8255
Ca(AuO2)2,mp-2898,1.6618000000000004
Pr2FeSbO7,mp-1219865,1.7804000000000002
KHfCu3Se4,mp-1180884,1.707
SnH5CN2Cl3,mp-2647030,1.7893
LiSb2(PO4)3,mp-684508,1.8474
V2P2PbO10,mp-562239,1.8245
Mg14AlNiO16,mp-1036618,1.6296
LiNbCoO4,mp-771821,1.9463000000000004
LiV2O3F,mp-753294,1.5082
Ca51W12N56O3,mp-561360,1.7094
Na2Mo(H2O3)4,mp-1202861,1.9423
K2AgAu,mp-1097515,1.9995000000000005
Li4Ti3O8,mp-755266,1.8916
Ba2Nd2Mg(Fe2O5)2,mp-2230169,1.5235999999999996
SiC,mp-567505,1.7772000000000006
Sr2La2MgMnO8,mp-1218813,1.81
Na2S,mp-8374,1.681
KNa2CuO2,mp-545359,1.5144
Sb24(Cl7F17)5,mp-532120,1.8188
U(OF)2,mp-634809,1.7567
Sr4Nb3PO14,mp-1249497,1.9159999999999997
LiVP3HO10,mp-849372,1.9301
S4(BrN)3,mp-27378,1.5129
PtPbF6,mp-20458,1.9711
Na10Y4Ti4Si7S5O48,mp-2715888,1.5782
La3AgSnS7,mp-542888,1.9522999999999997
NaAg(NO2)2,mp-554048,1.8723
KMnIO6,mp-1205906,1.9674
Li2Mn(BO3)2,mp-776779,1.743
BaSrLaVO6,mp-1520540,1.7237999999999998
TiZn2WO6,mp-1369855,1.5421999999999998
Na5UH3S4O19,mp-1195125,1.8874
Ca3Mn2(WO6)2,mp-1275109,1.7350000000000003
MgFe4(OF)4,mp-2218404,1.5605999999999998
Sr4ZrTi3O12,mp-1218457,1.7538
INO4,mp-1102791,1.6941
K4Ta3NbO12,mp-1223769,1.936
Li2VFe(P2O7)2,mp-1177781,1.9038
Li3U7(AsO7)5,mp-1223319,1.7877
Na5Y3Ti(PO4)6,mp-2713156,1.9330000000000005
Sr(DyS2)2,mp-980666,1.7879999999999998
KVHSe2O7,mp-644015,1.9415
Cs3As(PSe3)3,mp-1201199,1.7494999999999998
SrLaMnWO6,mp-39626,1.7819000000000005
MgZn2(CoO3)2,mp-2240001,1.9602
Sb2PbO6,mp-20727,1.9265
Zn2Fe2O5,mp-1377137,1.8502
Rb2U2Cr3(H6O11)2,mp-1211852,1.5791
Li2AlCoO4,mp-756579,1.7211
Nd9Al5Se21,mp-1220655,1.7754
SbS2NCl6,mp-555056,1.6653
K2MgMn3V2(HO5)2,mp-2230167,1.6168999999999998
Nd3CuSnS7,mp-560300,1.7587000000000002
Cu7P12S9Cl7,mp-554511,1.5235999999999996
Ba2In2O5,mp-752827,1.5654999999999997
CrFeTeO6,mp-1226257,1.5522
Ba2YBiO6,mp-23137,1.8237
K2TcC2S4NO4,mp-1181454,1.5891000000000002
KFeH2S2O9,mp-764405,1.882
GaN,mp-804,1.7264999999999997
FeH36C12S6(BrO2)3,mp-1182632,1.5168
LiVSiCO7,mp-770349,1.7103
CdSeO4,mp-772052,1.8471
KNaNb2O6,mp-1223364,1.9821
LiBi3(IO2)2,mp-1222461,1.8668
H6PbCI3N,mp-1194604,1.8147
Na4MgV2O6,mp-2233672,1.7748000000000004
RbS,mp-558071,1.7115
Y(FeO2)2,mp-1280748,1.6711999999999998
K3BN2,mp-1029756,1.5852000000000002
Li2VFe(P2O7)2,mp-760164,1.7203999999999997
Bi3O4F,mp-757162,1.7972
Na2Nb4Si7Sn4S5O48,mp-2715537,1.595
NbAg2(PS4)2,mp-554336,1.6183
Cs3Cu5O4,mp-16543,1.6383
VOF2,mp-759886,1.5966999999999998
NbP4(SCl)5,mp-561020,1.5099
RbVP2O7,mp-18436,1.7391
KAsSe2,mp-14659,1.5959
Ca(BiO2)2,mp-1044835,1.6578999999999997
LiFe2(BO3)2,mp-760227,1.9411
KAg2SbS3,mp-1192667,1.6882999999999997
LiFe4(BO3)4,mp-882580,1.739
P2S7,mp-1006118,1.8903
CuCSN,mp-672285,1.8558
Re3(SCl)7,mp-680059,1.6775000000000002
Na4Mg(MoO4)2,mp-2228651,1.979
Na2Ga4Si3Sn4(S3O16)3,mp-2716330,1.5604
Ba2MgMo4(Se2O11)2,mp-1233337,1.5659
Sr2H4Pd,mp-1179173,1.8442
Li7CuO4,mp-780217,1.9921
CsAg2AsS3,mp-866615,1.6273000000000002
Li3Cr(CoO3)2,mp-1277232,1.7583000000000002
Pr5Ti4FeO17,mp-555502,1.7721000000000005
BaCaYVO6,mp-1517517,1.6203
BaCaGdBiO6,mp-1523231,1.5524999999999998
Na5Ca3SnP3(SO8)3,mp-2714894,1.7547
HIO4,mp-1224433,1.5334
InBN2,mp-1246039,1.7912
K2InAsF6,mp-1112186,1.9966
Li9Mn2Co5O16,mp-1175909,1.5913
CsCu2I3,mp-23431,1.8996000000000004
KLaMg6O8,mp-1031347,1.7211
In2Si2O7,mp-19784,1.8099
HoCu(MoO4)2,mp-558437,1.9221
Cs2Se,mp-1080276,1.5571
FeH16C4N2Cl5,mp-1204478,1.6142
Cs2Ti(AgS2)2,mp-10488,1.6053000000000002
Sm2PbSe4,mp-674804,1.6411000000000002
BaS2(NO3)2,mp-728538,1.6921
LiMoAsO6,mp-560015,1.9394
Li5Fe8(BO3)8,mp-774994,1.6197
CaY5(MoO6)2,mp-1233138,1.8387999999999995
As4Se3,mp-1194350,1.6237
K2O,mp-971,1.7072
LiVF5,mp-758646,1.8122
Ba3Zn5In2O11,mp-560544,1.6191
Fe2Te4H3ClO12,mp-743878,1.5179000000000005
Ba8CaY2U4O24,mp-667498,1.9746
Ba2NaSr2(SbO4)3,mp-1228577,1.6808
LiLaTi2O6,mp-1222315,1.7571000000000003
Ca2CrWO6,mp-1445093,1.6023000000000005
Li15Fe15SiO32,mp-1178074,1.9058
CaGa4(WO6)2,mp-1233372,1.8757
K2TlSbCl6,mp-1111196,1.9155
Rb4CO4,mp-550679,1.5404
CrH10S2(NO2)4,mp-798760,1.7608
NaNbSi3Ge3(SO8)3,mp-2713842,1.7855
Sr(HoS2)2,mp-1194314,1.8256
Na3IO,mp-769398,1.8168
GdSBr,mp-1212521,1.6455
Fe2H14C8NO12,mp-1194812,1.6743
Li2V3F8,mp-778241,1.8532
Li3Fe8(BO3)8,mp-764815,1.7432999999999998
VPO4,mp-767632,1.8297
MgCuBi(WO4)2,mp-2241115,1.9143
TaFeO4,mp-754944,1.8732
CoHCO3,mp-600169,1.9825
Li4CrFe3O8,mp-771065,1.7779000000000005
NaTaTi3Si3(SO8)3,mp-2713825,1.6658000000000002
Ca3V2(SiO4)3,mp-1163934,1.8973000000000004
K2MnV4O12,mp-19228,1.6115
Ba2MgV2(Si2O7)2,mp-1234882,1.5277000000000005
In3SnI5,mp-568522,1.8894
BaNaVS4,mp-1227892,1.5001
Mg30VSiO32,mp-1036736,1.8949000000000007
Li2V3Si3O10,mp-767778,1.925
ScI3,mp-1186991,1.6942
Rb2InAgF6,mp-1110608,1.8555
Ba3MoN4,mp-8863,1.8505000000000005
KMgNbO3,mp-2226778,1.5147
Li2VBO4,mp-770346,1.7394000000000005
Fe3C10SeO10,mp-704545,1.7123
Li4Fe2O5,mp-770893,1.6407000000000005
Na4Zn3SiGeS5O24,mp-2713391,1.7401
SICl7,mp-29264,1.6598000000000002
VPb2Se2ClO8,mp-1192566,1.5448
Cd5Fe2(P2O7)4,mp-1214030,1.5868000000000002
Na3Fe3(PO4)4,mp-556540,1.897
K2Fe2P2O7F2,mp-651601,1.9967
Rb17Fe5O16,mp-768716,1.8478
NaTaZnSi(SO6)2,mp-2712612,1.741
La4Al6O15,mp-771838,1.9695
Na2NbAl3P4(SO12)2,mp-2712780,1.9490000000000005
Li2VCrP2(HO5)2,mp-759803,1.9831
V3OF11,mp-752857,1.8563
CdHg4C6S6(Br2N3)2,mp-557580,1.9085
V2ZnO6,mp-1045698,1.5706999999999998
LiFe2C2O7,mp-1176733,1.7614
CaMg6CdO8,mp-1031707,1.7076000000000002
ZrP2S7,mp-31014,1.673
MgFe4(HO2)4,mp-2229227,1.69
Rb3NaPbO4,mp-554584,1.6142999999999998
RbLaNb2O7,mp-553965,1.7695
CoH22N7(ClO2)4,mp-694994,1.6884
Li3MnCoO5,mp-1173984,1.7259000000000002
CsCoH18N6(ClO2)4,mp-705517,1.7708
K2SnHCl4,mp-1211894,1.9466
BaMg30CoO32,mp-1036978,1.6434999999999995
Nb2CoO6,mp-763481,1.9055
TlI3,mp-28329,1.6963
Na5MgSbO5,mp-2218154,1.6279999999999997
VP(H2O3)2,mp-695981,1.5931000000000002
Na6Mg2Nb4Si6(SO12)3,mp-2712657,1.8335
KMnO2,mp-1002570,1.7098999999999998
K2RbAlI6,mp-1111610,1.9161
SbAs3(Se2F3)2,mp-557606,1.8713
Rb3FeO3,mp-756020,1.9968
V3(H3O5)2,mp-1195972,1.6114000000000002
LiNbFeO4,mp-756415,1.8379
Li2CrFeO4,mp-754348,1.6730000000000005
La4MnS6O,mp-18292,1.9661
Zr2N2O,mp-776335,1.6637
CeP2O7,mp-22524,1.5859
LiV3F10,mp-752482,1.7053
SbSe6IF6,mp-559000,1.5285
TeMoWSe2S,mp-1029116,1.62
Ba6Zr(Zn3S7)2,mp-1202124,1.5411
TaCu3(SeS)2,mp-1218032,1.7547
NaTbSe2,mp-999127,1.839
V2OF5,mp-1101272,1.6491
Na2ZnSn3P4(SO12)2,mp-2712540,1.7870999999999997
KCeNbSnO6,mp-1520412,1.8976999999999995
NaCdSbS3,mp-1191034,1.5243000000000002
Ca(WO2)2,mp-1047458,1.7355999999999998
CoF3,mp-1271121,1.6382
UCr(HO3)2,mp-1208618,1.8085
TaIn3Se4,mp-1120727,1.8218
CuAsPbO4,mp-557871,1.8171000000000004
MgZn(FeO2)4,mp-2228470,1.7825000000000002
Hg(TeO3)2,mp-779690,1.9152
LiInSe2,mp-20187,1.5731
PICl8,mp-573373,1.6868
CaTi2MnO6,mp-1194928,1.5799999999999996
Sr2P7Cl,mp-1194705,1.948
TiNb2O7,mp-1216971,1.9316
KNb2PO8,mp-773047,1.9419
KVFeP2H5O11,mp-1224302,1.781
BaTiO3,mp-5986,1.7279999999999998
SrTa2Bi2O9,mp-556569,1.5824
LiTeHO4,mp-760684,1.7004
TiAlFeO5,mp-1217055,1.6263
CuBS2,mp-12954,1.7424999999999995
NiP2H26C8S4(NO)2,mp-1202667,1.8343000000000005
ReNClF5,mp-23098,1.8035
TeAuCl7,mp-28330,1.5508000000000002
Li5Fe3Sb2(PO4)6,mp-775305,1.5159000000000002
PrNb5O14,mp-28707,1.9449
Rb2Ag2Sn(PSe3)3,mp-1199727,1.5971
K5Au(IO)2,mp-558332,1.882
Mg6CdFeO8,mp-1032131,1.5860000000000003
Pr2Te2O7,mp-16152,1.5419
BiTeCl,mp-28944,1.5135
Sr2Ca49Mo12N56O3,mp-1209837,1.901
SbS3N2Cl7,mp-585964,1.818
TiO2,mp-1102255,1.7550999999999997
TbErO3,mp-1187342,1.7284000000000002
Y2CrSbO7,mp-1216201,1.894
Li2V3CoO8,mp-757296,1.5176000000000005
Na2Ta2Al6Si3(S3O16)3,mp-2716282,1.6352000000000002
Ca2Nb4Si3(SO6)6,mp-2713449,1.7642
LaTaZnCrO6,mp-1049235,1.8525
MgTi2V2O8,mp-2227435,1.5279999999999996
Cd2SiO4,mp-660318,1.5528999999999995
V2Bi24O41,mp-758482,1.6562
Fe10OF19,mp-1178377,1.9662
SbS5N5Cl6,mp-647878,1.7915
AuSeCl7,mp-28372,1.7274
Na8Gd2O7,mp-780360,1.8545000000000005
CdSeO4,mp-761036,1.6838
Li4Fe2O5,mp-760830,1.9146
K2NdNb5O15,mp-1211895,1.8534
Na3VBPO7,mp-756707,1.7686
LiMoO2,mp-35899,1.8314000000000004
Ho2MgS4,mp-1232250,1.8892
Cs2ZnBi2S5,mp-1199216,1.7343000000000002
Ag4Mo2Se3O16,mp-558550,1.6559
KNaZnO2,mp-557183,1.7792
InTeI,mp-29234,1.7076
MgFe4O5F3,mp-2219001,1.6997999999999998
Ba2Y2Zn8O13,mp-1228317,1.6886
Mg2SnWO6,mp-1346708,1.5436999999999994
BaSrSmBiO6,mp-1518254,1.9687
Na4LaSi2SnPO12,mp-2715643,1.7317999999999998
BrCl,mp-1008492,1.8129
Fe6P4H17O27,mp-744374,1.5183000000000002
MgUO4,mp-2271432,1.6809000000000005
Mg30VCdO32,mp-1036742,1.544300000000001
Na3YSi3Ge3(SO8)3,mp-2714699,1.5625
Cd5(S2Cl)2,mp-1013730,1.7229
K2LiAlP2,mp-6450,1.8853
Na2Nb5In3(PO4)12,mp-2713942,1.9135
Na2PtO3,mp-560860,1.5488
Nd5Ti4FeO17,mp-557307,1.7847
K5FeO4,mp-12040,1.7025
V4O5F7,mp-2214898,1.6487999999999998
Pr3ReO8,mp-16163,1.6865000000000006
Li3Fe2(SiO4)2,mp-1177679,1.6067999999999998
GaAg(PSe3)2,mp-654129,1.5033
InTeBr,mp-29236,1.7355999999999998
CsCoW(OF)3,mp-694946,1.7871
MnV2O6,mp-2490654,1.8528
BaSrPrBiO6,mp-1519048,1.7972
Na2ScNb3Si4(SO12)2,mp-2715541,1.8646
Gd2Br3N,mp-505435,1.8727
Li2CoSnO4,mp-755501,1.7113999999999994
K3ReClF6,mp-557125,1.814
Ag2PS3,mp-558469,1.7759000000000005
BaSrLuBiO6,mp-1227532,1.7561999999999998
Zr(TlS)4,mp-1198156,1.5449000000000002
AlInN2,mp-1247201,1.5194
Na4Mg(WO4)2,mp-2232117,1.5463
Cs6Cl4O,mp-29983,1.9928
CdSeO4,mp-779156,1.94
ZrBrN,mp-570157,1.7035
Li2TiNi2O5,mp-770851,1.5499
TaZn2FeO6,mp-1340585,1.6746
Rb2TlRhF6,mp-1113861,1.9393
Tl4BrCl3,mp-1216569,1.9943
Mg30ZnSnO32,mp-1037374,1.8329999999999995
SmTlS2,mp-999138,1.6781
Mn9Al2Si8(HO4)8,mp-707875,1.7298999999999998
CrAsO4,mp-19077,1.8132
K2Cr3O10,mp-27601,1.9511
LiVFeO4,mp-1176543,1.6311999999999998
H4Pd(NO4)2,mp-1204994,1.5519
CuMo3Br7,mp-571184,1.6912
Zn2Ni11O13,mp-1101164,1.963
Ho2CrSbO7,mp-1224219,1.6887999999999996
MnMoH2SeO7,mp-1222086,1.8801
Li3AlCrO5,mp-770586,1.7516999999999998
Ca7SiN6,mp-1029474,1.8303
Mg6ZnCoO8,mp-1032617,1.7432
Na6Ti3ZnSi4(SO12)2,mp-2714352,1.9139
Na3Nb7P4O29,mp-1221330,1.8574
Rb2Hg2PdCl8,mp-568252,1.8952
Ce2Nd2O7,mp-38284,1.7118000000000002
CuI,mp-570081,1.6315
Ti3V2O9,mp-1179324,1.5774
LiFeSiO4,mp-759064,1.7914
AsAuO4,mp-1095378,1.8671
Nb3InSi3(SO8)3,mp-2713920,1.6414
Dy4Mg(CuO4)2,mp-2232158,1.6364999999999998
DyFe5Bi4O15,mp-1226261,1.793
Ba2H6Ru,mp-697038,1.8699
LiFe5O3F5,mp-754471,1.6707
NaSmSe2,mp-999450,1.8016
HfTaNO3,mp-1018719,1.8989000000000005
Mn2Al2O7,mp-1255912,1.5858
Rb3Ag9(SbS3)4,mp-1219697,1.6418000000000004
MgH20C4Br2(N4O3)2,mp-703426,1.5996
SbNCl8O,mp-1197652,1.7767
Li3TiFe3O8,mp-760345,1.8205
Na4MgSi2SnSO12,mp-2714600,1.6911
YTa(WO4)2,mp-1042458,1.9435
TlIn4S5Cl,mp-1208155,1.5301999999999998
Tb5Mg(MoO6)2,mp-2230696,1.5762
Li4Cr3FeO8,mp-755721,1.9626
Na2Al4Ga4SiS11O48,mp-2714255,1.8961
TaIn3SiS5O24,mp-2713080,1.93
Li2CuPO4,mp-757430,1.5054000000000003
Ba3MgV2O8,mp-2227999,1.7867999999999995
LiFeOF2,mp-851087,1.559
MgFe4O5F3,mp-2219844,1.7544
CoI(NO)2,mp-616557,1.5959
Fe4OF7,mp-764745,1.8526
AuCl,mp-1120780,1.9497
Ba2YBiO6,mp-1523166,1.7584999999999995
Li3CuS2,mp-753741,1.9031
RbAuS,mp-9010,1.9946
MnAl(WO4)2,mp-1578402,1.7209000000000003
Tl6SI4,mp-27938,1.7784000000000004
Pr9Ga5S21,mp-1220132,1.6447000000000005
Ti3Fe3(BiO3)7,mp-1217638,1.6491999999999996
Li9V3P8O29,mp-761049,1.5394
U(HO2)2,mp-626169,1.8923
Ba6Y(ReO6)3,mp-1228593,1.9671
LiNb13O33,mp-772535,1.7345
H6RuN3Cl3O,mp-553901,1.7486000000000002
BaLaTiFeO6,mp-1227842,1.7837999999999994
LiVCrP2(HO5)2,mp-765311,1.5227000000000002
AgSbS2,mp-627601,1.6033000000000002
Sn5O6,mp-978114,1.7702
LiYSe2,mp-37879,1.5505
Sc2MnNiO6,mp-1105225,1.8181
LiVPO4F,mp-25423,1.6248000000000002
Ag3H13SeN4O5,mp-695941,1.9349
Li4Nb2Fe3O10,mp-769502,1.8553
SiO2,mp-1245026,1.9047
LiV4(PO4)3,mp-758290,1.5719999999999996
Zn3InAgS5,mp-1215730,1.9247
Ca3Ga3N5,mp-1246748,1.7016999999999998
BiSeI,mp-23020,1.5764000000000005
Ba2UBeO6,mp-1205751,1.7398999999999996
CoH17S2N5ClO4,mp-720855,1.5025
BaC2,mp-1735,1.616
Sm2S3,mp-32645,1.8076
P4S3I2,mp-608106,1.7917999999999998
V4Zn3(PO4)6,mp-18097,1.7203000000000004
BeNF3,mp-726347,1.7006
K6Al11Si13Ag5O48,mp-1248154,1.7038
Sr4Ti5(Si2O11)2,mp-558553,1.9364000000000003
Rb5FeO4,mp-768682,1.5655
CuAs7PS7Br,mp-1198103,1.8225
PtS4N3Cl,mp-557029,1.5035999999999998
Sr2V3O9,mp-530553,1.8843
SbCl3F2,mp-560748,1.7134
BaSnHgS4,mp-1183390,1.8559
KVS2O9,mp-555364,1.8158
Li9V3P8O29,mp-761091,1.6203
Cs3B3Se10,mp-1196535,1.7936
CsMnF4,mp-554411,1.9524
LiSmS2,mp-34477,1.9214
Sr3SbI3,mp-1208807,1.5242
Fe7(AsO4)6,mp-510450,1.5249
ZnFe3P3O13,mp-1047809,1.9319
Cs2Te(H3O5)2,mp-1203879,1.5900999999999998
SrAu2(SO4)4,mp-1197529,1.6783
SrLiLaTi3O9,mp-1218165,1.8409
RbPrSe2,mp-10778,1.8997
MnPb2WO6,mp-1195092,1.5715000000000003
Zr15VO32,mp-765485,1.7356000000000005
Sr2HN,mp-690794,1.8058
Sr(ErS2)2,mp-1193662,1.8246
Li2NbCr3O8,mp-755986,1.6013000000000002
Na10Ca2Ti6Si7S5O48,mp-2715855,1.7993
RbLiMg14O15,mp-1035407,1.9353
KH2C4N3O4,mp-1212361,1.5912
Li3FeO3,mp-1663732,1.5152
KSi,mp-1201508,1.5811
OsO3F2,mp-28845,1.913
Li2MnV3O8,mp-1177891,1.5143
Na4MgV2O6,mp-2233518,1.9681
BiSeBr,mp-569707,1.6912
TiSn(PO4)2,mp-760599,1.6575000000000002
LiSm4(Mo2O7)2,mp-1235612,1.5364999999999993
Ho10Te7S10,mp-677152,1.5769999999999995
Na4Br2O,mp-28599,1.9831
BaSrBiSbO6,mp-1227677,1.9536999999999995
Sr2La2MgTi3O12,mp-1218781,1.95
SbH5(Cl3O)2,mp-1192718,1.7813
La8Sb2S15,mp-1195582,1.9357999999999995
CaNiF4,mp-1395926,1.7546
C121(SCl10)2,mp-1203403,1.572
KV3Ge2O9,mp-1192668,1.6321
NaTiZnP(SO6)2,mp-2714585,1.6735
FeO,mp-1274279,1.8157000000000003
K4Ta2S11,mp-18664,1.7096000000000002
MgBi4(WO6)2,mp-2231229,1.8805
Ba3NaBiO6,mp-556316,1.7096000000000002
Cs5Nb2S4Br9,mp-556239,1.775
Li2Mn2Cr3O12,mp-775291,1.7395999999999998
K4SnSe4,mp-18132,1.7396
Gd2MgS4,mp-1232233,1.7786999999999995
KZrVF7,mp-554835,1.9948
CrXeF10,mp-1204829,1.5185
LiVF5,mp-767672,1.9139
Li3Cr2FeO6,mp-755051,1.6802999999999997
Fe3PO7,mp-18775,1.7147
Dy2CrSbO7,mp-1225509,1.8942999999999997
LiVGeO5,mp-763317,1.9325
Li6VSn3(PO4)6,mp-775752,1.5020000000000002
Ca2V3O8,mp-1042856,1.6111
Li2VOF4,mp-761267,1.5987
HoBeNF6,mp-1212242,1.9256
Tm2MgS4,mp-1232322,1.6025
Na18Nb8Zn4Si15(SO24)3,mp-2713902,1.6456
CaTiO3,mp-5827,1.8285
K2TlAsCl6,mp-1111588,1.905
NaFe2(PO4)2,mp-1210447,1.8351
SrHo31Al2Si14N13O59,mp-1173187,1.8576999999999997
Li2FeOF3,mp-850401,1.9609
VH2O3,mp-27545,1.7128
ICl,mp-567998,1.8522
NaScS2,mp-999460,1.6789999999999998
GeS2,mp-1071032,1.6051000000000002
Li7V3(SiO6)2,mp-1176994,1.6544
Li4Ti3Co2Sn3O16,mp-774375,1.6612000000000005
Cs2TlGaBr6,mp-1112492,1.7459
V3Se2ClO8,mp-1048546,1.6458000000000002
TiO2,mp-2657,1.7809999999999997
Li2VFeP2(O4F)2,mp-761208,1.6052
Li2VF6,mp-752779,1.7858999999999998
TaBi3O7,mp-37030,1.9575
Na3Np(H7O6)2,mp-1202249,1.5582
KAg3As2S5,mp-561304,1.6896999999999998
BaU2V2O12,mp-1227825,1.9807
CoH8(CO2)4,mp-1200121,1.6046
K5Na3Ta7NbO24,mp-1076413,1.96
BaI2O,mp-725677,1.7326
Li2MnV3O8,mp-1273514,1.6437
Fe5(GeO4)3,mp-1213223,1.6987
ZnGe(SO4)3,mp-2713873,1.5473