pretty_formula,material_id,band_gap
BaMg(FeO2)4,mp-1233160,1.5097999999999998
Nb12WO33,mp-1198790,1.9571
CaFe8(OF)8,mp-1233554,1.7675999999999998
Rb3P11,mp-1197062,1.9328
BaSrSmWO6,mp-1520486,1.7599000000000005
AlPH8(CCl)3,mp-1228904,1.9662
LiV2OF7,mp-1285272,1.8637
Tb2MgV2O8,mp-2220009,1.6209000000000002
Fe5OF11,mp-1178250,1.7294
CrO,mp-1272524,1.5811000000000002
Mg6FeNiO8,mp-1032469,1.8474000000000004
Ca3Sc3N5,mp-1246493,1.8365
Li7Mn(O2F)2,mp-766052,1.6784
VCrO3,mp-1216392,1.6132999999999995
ZnFeO2F5,mp-1178657,1.7122
Lu2ScV3O9,mp-1223087,1.6076999999999997
Nb2PbO6,mp-773965,1.6902
Sb2XeF16,mp-1195711,1.6479
LiTb4Al2(FeO6)2,mp-1236305,1.6254
Na14Zn5Si6Ge3(SO8)6,mp-2714242,1.5084
CaLa2Co2Sb2(PbO6)2,mp-1234716,1.711799999999999
RbMgCu2H3(SO5)2,mp-1233327,1.9152
PtCl2,mp-23290,1.7917
Ba2InClO3,mp-558243,1.9145
LiFeSiO4,mp-758991,1.8818
Y4Co13Si2(SbO14)2,mp-1044612,1.5925000000000002
KSmSe2,mp-1006891,1.8906000000000005
Er2Se3,mp-32736,1.6222000000000003
MgCr6O16,mp-2234316,1.6709
K2NaMnF6,mp-1079339,1.5314
TiZn(BiO3)2,mp-557950,1.7191999999999994
Cs2LiCr(CN)6,mp-570502,1.8734
NF2,mp-726118,1.8956
Na6Si7Ge8S5O48,mp-2713022,1.5779999999999998
Sm2MgMo2(ClO4)2,mp-2232093,1.7282000000000002
SrHfN2,mp-1029396,1.5456999999999996
Li2V2OF6,mp-753637,1.6207
CaSnS3,mp-1100340,1.584
Na30Nb20Zn4Si33(SO48)3,mp-2716457,1.9898
AgMoPO6,mp-14029,1.9428
Bi2O3,mp-759526,1.7345000000000006
AuSCl7,mp-556587,1.8191
Sr2MgCuWO6,mp-2217957,1.9671
PrMg(WO3)2,mp-1044743,1.9081
Na3Nb5ZnSi6(SO12)3,mp-2715703,1.842
Na2SeO2,mp-1210902,1.8216
Na4TiZnSi(PO6)2,mp-2714357,1.6168
Na5Fe2P2(CO7)2,mp-1176347,1.7834
ZnCrAsO5,mp-1346852,1.9527
Ba2CrO4,mp-561426,1.8319
Nb2CoO6,mp-504552,1.7676000000000005
Cu3As2H16C16Br3(NO)2,mp-605172,1.6932
Tl4Hg3Sb2(As2S5)4,mp-553948,1.6628000000000005
V2O5,mp-624689,1.5337
K2NaMoCl6,mp-1110861,1.5542000000000002
Hf2N2O,mp-779833,1.9989
KSrCeBiO6,mp-1523116,1.6961
Rb2NaMn(CN)6,mp-505659,1.9485
K2RbMoCl6,mp-1110717,1.6332
LiV2O2F3,mp-753060,1.7622999999999998
Nd2CdS4,mp-37233,1.6895999999999995
Lu2MgCr2O8,mp-2219388,1.7298
Rb2LiPr2(WO4)4,mp-1236612,1.9318
MgCrF6,mp-1233559,1.6591
BaMg30MnO32,mp-1038048,1.5848999999999993
YWN3,mp-989576,1.5404
Na3Nb6Bi5O24,mp-1221291,1.8875
V2(OF)3,mp-850989,1.7615
Sm3CuSnS7,mp-558042,1.7035999999999998
Li5Fe5Si7O24,mp-767276,1.8272
TiZnBi(PO4)3,mp-1043818,1.8917
K2VPCO7,mp-754947,1.6536
Ba3MnNb2O9,mp-20921,1.7737999999999996
Bi6Cl7,mp-582968,1.6159999999999997
Ca2CrO4,mp-780397,1.8761
NaNd(GaSe2)4,mp-570876,1.5138
Ho10Ti6O27,mp-530797,1.6039000000000003
Li3TiV3O8,mp-757012,1.509
NaLi2RhF6,mp-1111095,1.9166
Cs2AlTlI6,mp-1112111,1.5910999999999995
AgH4WS4N,mp-643431,1.7101
Na3Ni2SbO6,mp-971678,1.8083
Na2Pd(NO3)4,mp-560120,1.7034
Li6Ti2S6O,mp-770212,1.9745
LiFeP2O7,mp-849555,1.7515
BN,mp-1599,1.5671
MgFeBO4,mp-1210634,1.8677
Li2VO2F,mp-1274092,1.7354000000000005
MgH16C4S4N2(O4F3)4,mp-1181934,1.5647000000000002
InBrO,mp-27703,1.9948
Sr2ZrTiO6,mp-1080028,1.8689
LiMnP4(H2O7)2,mp-780204,1.5253
NaFeF3,mp-505066,1.8013
Ce3SnO8,mp-1226979,1.5699000000000003
Ni17(As3O16)2,mp-759655,1.6063
Na10Y4Si7Ge4S5O48,mp-2715884,1.6094000000000002
ScCu3PbSe4,mp-1179525,1.7912
Rb2ScCuCl6,mp-1113560,1.8951
Mn(AsO2)2,mp-752598,1.9688
La2NiO4,mp-690517,1.9125
Li3Fe2P2(CO7)2,mp-768653,1.8939
Li3V2(PO4)3,mp-775921,1.7477
NaLiCeWO6,mp-1517519,1.8641
Li2AgF3,mp-760805,1.9409
VOF,mp-760321,1.5228000000000002
V2OF5,mp-1574993,1.8802
Li5Cu(PO4)2,mp-26311,1.9666
AsBr5F6,mp-28647,1.6507
UP2H2CO7,mp-1197788,1.7621
ScIO,mp-559760,1.9603
Li2MnCl4,mp-34148,1.8782
Y2MgS4,mp-1232387,1.5443999999999996
La6Zn(SiS7)2,mp-1223149,1.9847
Ca2TiO4,mp-1096860,1.6073
NbVO5,mp-771882,1.7722
Ga2Sn2S5,mp-14280,1.6968
Na2Y4Ta4Si5S7O48,mp-2716130,1.8606
LiFe2O2F3,mp-756358,1.9177
In4(SnO4)3,mp-1223964,1.6232999999999995
Li3VS4,mp-760375,1.8832
Zn(BiO2)2,mp-1041542,1.5583999999999998
NaIn2Sn2P3(SO8)3,mp-2716352,1.6534000000000002
Tl2Cr3O12,mp-9754,1.7286
Ba(SmS2)2,mp-1194376,1.7590000000000003
Ba3In2MoO9,mp-1228643,1.8273
AlCrO3,mp-1345463,1.8028999999999995
LiFe2O3,mp-1298536,1.5557999999999996
Na2GaAgF6,mp-1111329,1.5786
Nd2PbS4,mp-675620,1.7709
MnMoH2SeO7,mp-1192298,1.8798
Sr(LaSe2)2,mp-33569,1.6753
AlSb(WO4)2,mp-1041643,1.6134000000000004
Ge3N4,mp-476,1.9151
K2TaNbO6,mp-1207114,1.7028
Na2VBPO7,mp-1640545,1.5229
MgSn2O5,mp-1042980,1.7777000000000005
MoO3,mp-1445089,1.8186
Cs2LiVS4,mp-510338,1.5878
Zr2N2O,mp-776360,1.6673
GeC,mp-1002164,1.6580999999999992
TePb3(BrO2)2,mp-1217453,1.923
Zn2(PS3)3,mp-27656,1.8214
Na2La3Nb5(PO4)12,mp-2713915,1.8685
IrCl3,mp-568208,1.9582
CsRb2TlBr6,mp-1111830,1.7076
MgFe2Si2SbO9,mp-2226934,1.9427000000000003
Ru(C4N3)2,mp-1245789,1.8182000000000005
Sr2MgMnMoO6,mp-2217329,1.7067
Na9Nb2Zn4(PO4)9,mp-2715313,1.9829
Ti(PO3)4,mp-540258,1.6936
GeSe2,mp-10074,1.5188
NaMg14BO15,mp-1034618,1.8832000000000004
Ti11Fe13O36,mp-531901,1.7464
Tl2Hg3S4,mp-1188364,1.5797
K2V3O8,mp-16787,1.7249
Li7Fe4(P2O7)4,mp-1177031,1.5648999999999995
SrUO4,mp-1179373,1.8282
Cs2Hg(BSe)9,mp-1202194,1.8712
Na2SrLa2Ti5O15,mp-695243,1.8584000000000005
La3SiN4F,mp-1194197,1.9716000000000005
LiSbTe2WO12,mp-754339,1.8125
Li2VCrP2(HO5)2,mp-760167,1.6957000000000004
KFe4(SiO4)3,mp-1223588,1.9244
Mn4V4O13,mp-531419,1.5289
Sb5IO7,mp-1238942,1.9632
Sr2MgCo2O5,mp-2217072,1.7157
Li2AgF3,mp-760580,1.9705
CoH7C3NO6,mp-1195522,1.9593
K2Sn(AuS2)2,mp-557121,1.6433
CsHg2Br5,mp-619510,1.9907
Na2Y4In4SiS11O48,mp-2714095,1.8391
Mg6CdNiO8,mp-1031652,1.5191
RbLi2Fe2(BO3)3,mp-770709,1.8834
As(BrF2)3,mp-28159,1.6272
LiFeB2O5,mp-752712,1.6515000000000004
BN,mp-1244872,1.5766
K2Ag4Pt3(NO2)12,mp-557863,1.6828
CrPO4,mp-26580,1.9681
K4BaU3O12,mp-19965,1.9898
Mg6CdNiO8,mp-1031642,1.5616000000000003
Li7Mn2(CoO4)3,mp-1174622,1.5614
Sr5Ti7O19,mp-1202132,1.8208
SrNb6O16,mp-14482,1.6323
BaSrNdVO6,mp-1516222,1.6403000000000003
MgSn2P2O9,mp-1049302,1.6000999999999994
TiSnO4,mp-753048,1.6117
Ga2TeSe2,mp-28423,1.6141000000000003
Na2TeO4,mp-27537,1.8037
CsC3(SeN)3,mp-569889,1.7791
Li3Fe8(BO3)8,mp-761234,1.6831000000000005
AgNO2,mp-5770,1.7726
CsMg6BO7,mp-1099225,1.8313
SrCaTiMnO6,mp-1218391,1.536
BaCaNdBiO6,mp-1522977,1.6982
SbPCl8O,mp-23574,1.8685
Zn(FeO2)2,mp-34730,1.6068000000000002
Ta2O5,mp-1218001,1.6696
LiZnRhF6,mp-1222336,1.5896
ZnFePO5,mp-1207884,1.9124
Na6Ge2Se7,mp-18100,1.5871000000000002
Rb2Cr4O13,mp-616565,1.5376
CaY5(MoO6)2,mp-1234100,1.8908
Na5Y3Si3Ge(SO8)3,mp-2713439,1.7069
SnGeS3,mp-5045,1.6591
LiDyS2,mp-33667,1.9742
LiCo2OF3,mp-765718,1.8536
NbBr3O,mp-1220556,1.9457
TiO2,mp-1041565,1.8094
Na7Ca2Ti2SiP5O24,mp-2715607,1.824
V2H12C4S4O15,mp-1198308,1.9757
CoH14C2N10(ClO3)2,mp-1197397,1.7506
Na2Ta4Zn4Si3(S3O16)3,mp-2716451,1.5543
Na42Mg20Ta4Si15(S7O48)3,mp-2715931,1.9447
Na2O2,mp-2340,1.7361
ZnTeH12Se3N4,mp-1203210,1.6757
CsPbBr3,mp-1014168,1.8178
YWN3,mp-989407,1.5150999999999994
Li19Cr4P8O35F,mp-759194,1.9694000000000005
Sr2CaTi3O9,mp-1218859,1.9005
SbSCl9,mp-28772,1.6343
LiFe2(PO4)2,mp-753789,1.6613
Cs2AgSbCl6,mp-1112940,1.6624
Ba6Mg(P2O7)3,mp-1233105,1.5761000000000005
Li16Fe4SiO16,mp-757339,1.8916
Fe6P4H23O21,mp-1213654,1.5143
K2RbTlBr6,mp-1111203,1.5429
Li4Cr3FeO8,mp-768687,1.9676000000000005
Cd4SF6,mp-1013726,1.8553
Tb9Ga5S21,mp-1217757,1.5546999999999995
Li3Fe(BO3)2,mp-770926,1.6448000000000005
SrGa12O19,mp-863423,1.8584
LiZn2Fe9O16,mp-773576,1.5292
BaSe,mp-1253,1.9488
SeS2(NO)2,mp-8845,1.8651
Ba2ScAlO5,mp-1228598,1.9972
K2NaGaBr6,mp-1111641,1.6303
SnHg7(P2Br3)2,mp-570135,1.6526999999999998
Ba2PrGaS5,mp-1228477,1.817
V4OF11,mp-1303638,1.8285
Li2MnF5,mp-767572,1.5265000000000002
Ba2GdMgMoO6,mp-2227258,1.5189
Si3Pb11O17,mp-1198381,1.976
CaCr2(Si2O5)4,mp-1329473,1.5578
V5(PbO6)2,mp-22296,1.8211000000000004
C(NO)2,mp-1197051,1.8503
Zr2N2O,mp-776246,1.5631000000000004
Ba4CeMn3O12,mp-561553,1.9704
Ag2TeO3,mp-18068,1.6272999999999995
Li6VSb3(PO4)6,mp-757309,1.6104999999999996
Na14Ti4Ga4Si9(SO16)3,mp-2715026,1.9721
LaScS3,mp-1190131,1.6446000000000005
Li2MoP4O13,mp-1101555,1.8746
Li2VSi4O11,mp-752694,1.9445
Cs2VS5O,mp-1198002,1.634
Li3V2(PO4)3,mp-705293,1.9338
Na9Mg5Nb7(PO4)18,mp-2714768,1.6706
Na2TbCuCl6,mp-1111485,1.6434
LiV(SO4)2,mp-1176627,1.8864
K3SbTe3,mp-5626,1.711
Ca(WO2)2,mp-1042158,1.5499999999999998
La4Se3N2,mp-1205351,1.6576999999999993
La2Ce2O7,mp-768522,1.8497000000000003
Na3YSiGe(PO6)2,mp-2715249,1.6969
TiNb2O7,mp-1217062,1.9328
Li2VFeP2(HO5)2,mp-1177765,1.7279
Li3Mn2OF5,mp-753529,1.9747
RbB6H8O7,mp-1202047,1.7231999999999998
NaLiO,mp-755959,1.5957
CrPO4,mp-689963,1.7833
Na3Sr4La3Ti10O30,mp-1173082,1.8159000000000003
SrMg6ZnO8,mp-1032034,1.8376
Ca10La6Mg3Ti13O48,mp-695254,1.9166
KCa2Nb3O10,mp-1223594,1.9665
Zn2As2O7,mp-781624,1.7769
Mg(MoO2)2,mp-1047337,1.8999000000000008
Na3AuO2,mp-28365,1.9715
MnSn(PO4)2,mp-775753,1.5478
Na6Nb4In4Si7S5O48,mp-2713003,1.6787999999999998
Fe4Ni3(PO4)6,mp-17258,1.8411000000000004
Na2ZnGe3P4(SO12)2,mp-2712673,1.5039999999999998
MgFe6(OF)6,mp-2228335,1.5155999999999998
La5Ti6S3(ClO5)3,mp-1223572,1.7769000000000004
LiFe2(BO3)2,mp-764519,1.5639
Sr2MgTiFeO6,mp-2217634,1.8155
MgCo6(OF5)2,mp-1233284,1.7765
CoSb(PO4)2,mp-1645522,1.8863000000000003
CsRb2PdF5,mp-8202,1.7853
Fe2As2H2PbO10,mp-1212702,1.6533
V3CdO7,mp-1179420,1.8561
Mg(BC)2,mp-1079629,1.5968
Na14Mg5Si6Ge3(SO8)6,mp-2714156,1.5588000000000002
Ti3MnO8,mp-782664,1.8237
SrCaVInO6,mp-1518195,1.7895000000000003
KNaMg30O31,mp-1040283,1.9217999999999995
Fe3H10S2NO14,mp-40778,1.9047
Sr5Li25La7(BiO6)8,mp-686736,1.9255
TlAu(CN)2,mp-569173,1.7415000000000005
ZnH18Ru2Br7N6,mp-707342,1.5730999999999995
Ca3Mn2(Si2O7)2,mp-557275,1.6320999999999994
Pr3CuSiS7,mp-555893,1.5885999999999996
NaLuTi2O6,mp-1221004,1.8433
Nb2NiO6,mp-766838,1.7762999999999995
Mg30GaBO32,mp-1038428,1.9546
NaMg14SbO16,mp-1034338,1.5487000000000002
YHSe,mp-28797,1.5072
LiVSiO4,mp-766083,1.5009000000000006
NaPO4,mp-1202449,1.8212
WC4(BrO2)2,mp-650526,1.8238
Na6Nb4Al4Si7S5O48,mp-2712938,1.5459999999999998
KSrCeSbO6,mp-1522321,1.9095000000000004
KMg30MnO32,mp-1038115,1.8944
Rb2LiBiI6,mp-1110751,1.9334
Li3V3(PO4)4,mp-26421,1.8452
Mg5(GeN3)2,mp-1246077,1.7379999999999995
Tl3AsS4,mp-5704,1.6893000000000002
MnVH4O2F5,mp-505254,1.9634
SmS3(NO3)3,mp-1208965,1.782
VOF2,mp-777999,1.7716
LiMn2F5,mp-787037,1.9265
H2Os5(CO)16,mp-707849,1.7437
NaScTiSi(SO6)2,mp-2712602,1.9722
Na4Ti3Zn(PO4)6,mp-2713298,1.9754000000000005
MnTlF4,mp-1102938,1.917
Na2USiO6,mp-560004,1.9761
Ca(FeO2)2,mp-1041946,1.7351
Li3Co5OF11,mp-1345007,1.7472999999999996
K2SeBr6,mp-23036,1.6978
Ba2NdWO6,mp-1519207,1.7938000000000005
Cs2Na8U8Mo5O44,mp-1228549,1.8121000000000005
LiV(CO3)2,mp-757212,1.7544999999999995
HoCuS2,mp-12453,1.6072999999999995
Na8CaSi5Sn3SO24,mp-2715611,1.6616999999999995
Li5NiOF5,mp-753377,1.8952
Ba3FeGe5O14,mp-1214741,1.597
RbCa(H2N)3,mp-696329,1.8986
Li2Fe3O4,mp-1222957,1.9365
V2Si2O7,mp-1273857,1.8045000000000004
CaMnB2O5,mp-555385,1.5225
LiNiOF,mp-753559,1.9612000000000005
Mg3MnH7,mp-643573,1.6630999999999996
Nb4VO12,mp-753925,1.5973
Na2U2O7,mp-1190329,1.5976000000000004
Tb3Fe5O12,mp-3282,1.6714000000000002
NbSNCl6,mp-608398,1.8154
V3OF11,mp-761062,1.9062
Na5SbO5,mp-1101682,1.6264
Dy3CuSiS7,mp-557998,1.800599999999999
Na3Zn3GePS5O24,mp-2713641,1.757
Na3V(H14O11)2,mp-1221471,1.7959
Ba2GaSbSe5,mp-1203387,1.8067
Tl3Cd2I7,mp-28432,1.8253
Rb2U3P4H4O19,mp-1220504,1.6902
LuBeNF6,mp-1211031,1.894
CaB5H4O9,mp-1214219,1.9247
MgCr(SiO3)2,mp-1210737,1.9225000000000003
UCd3O6,mp-754725,1.7871
TaMn2FeO6,mp-1217936,1.6284
LiNdSe2,mp-37605,1.523
Na2MgGe3P4(SO12)2,mp-2712676,1.5861
ZnC2(Br2N3)2,mp-1194420,1.5295
Li2TiNi2O5,mp-755348,1.5482000000000005
P3RhW2O15,mp-1194839,1.5049
NaMg30MnO32,mp-1038011,1.5134
DyCuS2,mp-555044,1.6783
CsLaCdTe3,mp-12491,1.7300999999999995
MgMnV4NiO12,mp-2231564,1.5634
V2P2O9,mp-559662,1.7284000000000002
Li6Ni3P6WO24,mp-757643,1.7706000000000002
LiHg2Au,mp-1097526,1.7888000000000006
H2,mp-1181265,1.5177999999999998
LiNd2HO3,mp-24150,1.8719
ZnCr2O4,mp-1041789,1.7480000000000002
MgV4FeCoO12,mp-2231237,1.5114
Pb5(SI3)2,mp-23066,1.8469
MgSb2PbO6,mp-2222815,1.9354999999999996
Sr7CaTi8O24,mp-1075922,1.7714
BaSrNdVO6,mp-1516350,1.6697000000000002
RbMg6BO8,mp-1033557,1.6866
NClO,mp-1103281,1.7027
Hg3AsS4Cl,mp-559355,1.5137999999999998
USiH2PbO7,mp-1202774,1.8234000000000004
ScNb3(PO4)6,mp-2713914,1.8216
BaTbInWO6,mp-1517949,1.6481
LiCo2OF3,mp-850824,1.6303999999999998
Li2Sn(PO3)6,mp-757479,1.8913
Li4Re6S11,mp-1181012,1.7327999999999997
Li2VFe(P2O7)2,mp-764299,1.8139
VBO3,mp-18946,1.8747
Ca(BiO2)2,mp-1042216,1.7897999999999996
RbP15,mp-1209298,1.5046000000000004
Gd2CrSbO7,mp-1224730,1.9649
MgCr4Hg4(H2O9)2,mp-1234676,1.7061
Lu2MgS4,mp-1232138,1.5361999999999996
Li3Fe2(SiO4)2,mp-778622,1.9232
YMgMo(WO4)2,mp-2219044,1.8156
TaFeO4,mp-1173115,1.6022000000000003
Fe(PO3)3,mp-763780,1.6221
K2PtC4(BrN2)2,mp-568299,1.9429
Li6MnS4,mp-756490,1.5491
Ca2SnS4,mp-866832,1.7379000000000002
Na6Sn2O7,mp-773498,1.8237
CoH14N5O9,mp-733572,1.9023
NaLiLa2Ti4O12,mp-677430,1.9969
Ca4CN4,mp-5251,1.7906999999999995
LiP4WO12,mp-758408,1.6455000000000002
KMg30BO31,mp-1040287,1.981800000000001
Y2GaN3,mp-1245627,1.5698
Na3CaNbSi(PO6)2,mp-2715291,1.7441999999999998
Rb6U5V2O23,mp-554617,1.5258999999999998
MgSb2(O2F)2,mp-2223325,1.968
MgCoAs2O7,mp-1042722,1.9598
Al2ZnTe4,mp-7908,1.6250999999999998
LiVF5,mp-759035,1.9896
Ba8CaY2U4O24,mp-1182635,1.8908
ZnPS3,mp-3342,1.98
K5Nb(CN)8,mp-569711,1.7548
Fe2CoAs2(H5O7)2,mp-510532,1.5109
SrHg2(ClO)2,mp-554351,1.6593999999999998
Li2VSiO4,mp-753369,1.7175000000000002
Ba(VN2)2,mp-1029918,1.5780000000000003
Y3CuGeS7,mp-556781,1.7881
NaMnAsO4,mp-17876,1.7334999999999998
Hg2P4PdO8,mp-1213487,1.6023
CsPbBr3,mp-1120725,1.955
Li6V3Cr(PO4)6,mp-757469,1.9505000000000003
Na10Zn7Sn7H24(S13O6)2,mp-720670,1.9307
RbV2SeO7,mp-623590,1.7403000000000002
Cs2RbAlI6,mp-1112133,1.8835
KLaDyBiO6,mp-1522669,1.7130999999999994
LiV(OF)2,mp-760272,1.8214
Cs3TlO3,mp-756122,1.6198
Li2VF6,mp-753667,1.8047
Na14Ca4Si7Sn4S5O48,mp-2715536,1.5775
K2Sb4O11,mp-27140,1.8586
GaTeI7,mp-29541,1.8676
Cs2InGaCl6,mp-1113201,1.9897
Na8Mg3Si3Sn(SO8)3,mp-2714921,1.6402
ZnCu2SiS4,mp-1189702,1.6100000000000003
FePO4,mp-776288,1.6668000000000005
Li2VCO5,mp-1177806,1.6756000000000002
Li3V(BO3)2,mp-770345,1.9767
Li9Mn2Co5O16,mp-1176277,1.5156999999999998
CaMn2F10,mp-1412254,1.7105
CoB10H21(C6Cl)2,mp-1196618,1.7155
Ti3(BiO3)4,mp-1179025,1.5420000000000007
LaSm3(FeO3)4,mp-1222895,1.5064000000000002
MgGe(SO4)3,mp-2713790,1.5227
LaMoBrO4,mp-1194207,1.8558000000000003
Rb2NbCuS4,mp-672161,1.8253
Rb4U5O17,mp-558239,1.517
Sr2PrVO6,mp-1517869,1.6584
Na18Ta8Zn16Si9(S3O16)9,mp-2713831,1.5305
SiC,mp-582034,1.6890999999999998
Na5Li3(TiS4)2,mp-554395,1.9652
Na5GdO4,mp-755870,1.7396000000000005
SrCaDyBiO6,mp-1520532,1.6487000000000005
H6PbCI3N,mp-995214,1.7627
K2H6PtC4N4O3,mp-720283,1.8723
Cs2TlBiBr6,mp-1112498,1.7359000000000002
PWO5,mp-1044162,1.6519
Li3AsH36(SeN3)4,mp-866667,1.8941
LiFe(PO3)4,mp-758801,1.8861
LiCo(PO3)5,mp-818640,1.8146
Li7Zr3Nb(TeO6)4,mp-695434,1.9009000000000005
Lu6UO12,mp-20402,1.9232
Ti3ZnSiS5O24,mp-2713008,1.6408
Zn2Hg2H2S2O11,mp-761169,1.9089
Zn3Fe3(AsO4)4,mp-1041706,1.6552
SrTiFe4Bi4O15,mp-1217795,1.8761
Sn5(W4O11)2,mp-557003,1.5501
SrLaI5,mp-772160,1.9459
SrLiCoF6,mp-554131,1.7699
Na5In3Si3Ge(SO8)3,mp-2713154,1.9629
Gd2HgO4,mp-756040,1.7532
Cs2U2O7,mp-548479,1.5078
NaHf2Sn2P5SO24,mp-2716220,1.9844
LiHoSe2,mp-15796,1.5729000000000002
Fe2CoO4,mp-753222,1.5511
Cr3B7IO13,mp-558442,1.7271999999999998
Ba2SnWO6,mp-1518946,1.5556
Na2AgSbCl6,mp-1111538,1.5820999999999998
Pr2P3H5WO9,mp-1237531,1.5134
SrTa2O7,mp-722557,1.7640999999999998
Li2FeO2F,mp-776565,1.9849
LiVP2(HO4)2,mp-850751,1.7387
Li2ScCuCl6,mp-1111262,1.8566
Sr2CaTi3O9,mp-1218886,1.9848
NaSrCeBiO6,mp-1519314,1.7935
YMo3F15,mp-1041695,1.8009000000000002
CaLa2Co2Sb2(PbO6)2,mp-1234267,1.5866999999999996
InGaS3,mp-19885,1.6761
K2PtCl6,mp-23513,1.8566
Rb2TlAsCl6,mp-1114009,1.9544
Cs3InI6,mp-1112969,1.6049
MgV2Ag2(HgO4)2,mp-2232484,1.5692999999999997
BaH3IO6,mp-1227990,1.9605
Cs2TlCl5,mp-541696,1.809
CaVFe(P2O7)2,mp-1233631,1.8609
H2W2O7,mp-625502,1.631
Sb3As2S14(IF8)3,mp-554195,1.8039
Tl6SCl4,mp-28242,1.7993999999999994
Na10Ca3Ti5(PO4)12,mp-2713414,1.8293
Pr2MgMn2(GeO5)2,mp-2229749,1.6069
Hg2WO4,mp-29894,1.6656000000000002
TaFeO4,mp-1217946,1.8015
Li2S,mp-723352,1.9207
MgNb2(CoO4)2,mp-2219413,1.7564000000000002
La2Mn(SeO)2,mp-1196301,1.7513000000000003
LaPb6BrO7,mp-560665,1.9305
LiMnVO4,mp-19107,1.9637
P2PtO7,mp-29282,1.5197
Mg2VWO6,mp-1047149,1.7249999999999996
KH2OsNCl4,mp-1211579,1.5572
NiH36C12S6(I2O3)2,mp-766473,1.871
Ti2Fe(PO5)2,mp-556401,1.9465
Nd6Cd(SiS7)2,mp-1220303,1.8684000000000005
Ho2MgSe4,mp-1232182,1.5904000000000005
Li2Ti2FeO6,mp-753064,1.5542000000000002
CoCO3,mp-1181984,1.5474
Ba2BiSbO6,mp-23091,1.7745999999999995
LiFe(GeO3)2,mp-22173,1.9506
MgFe4(OF)4,mp-2218469,1.7681
Na4Mg3TiP2(SO6)4,mp-2713136,1.7312999999999998
La5C2Br9,mp-29070,1.7523999999999995
BaV2H2Se2O11,mp-1195240,1.7073
RbFeO2,mp-558337,1.5564999999999998
Al2ZnS4,mp-1228438,1.7538999999999998
MgFe2P2O9,mp-1041009,1.8796000000000004
Li2O2,mp-558312,1.6379
Li5Mg11(WO4)12,mp-1177113,1.8046
Ca(CoO2)2,mp-17544,1.6139
V4O5F7,mp-761197,1.5538
Sc3NbSiS5O24,mp-2712901,1.6135000000000002
KUI3O11,mp-554888,1.9515
Fe2Te4BrClO10,mp-1213361,1.9778
LiLa2HO3,mp-24148,1.9578
V3OF11,mp-1101185,1.7703999999999998
Mg30NiSnO32,mp-1036900,1.5501000000000005
Na8Mg(NiO4)2,mp-2230685,1.7331
K2SnSe3,mp-9693,1.646
K4CO4,mp-546643,1.7898
Sr2UCdO6,mp-1188876,1.9643
Na3CuO2,mp-779502,1.605
V2Zn(PO5)2,mp-1043831,1.6636000000000002
Cs2CeCuCl6,mp-1113363,1.6740999999999997
YCo(WO4)2,mp-1042205,1.5853000000000002
Y(FeO2)2,mp-1045493,1.7691
Na2ZrS3,mp-1210267,1.9268
Si2H2O3,mp-1179527,1.6829
C3S7O,mp-1192192,1.9924
FeGeO3,mp-22334,1.9617
CoSeO3,mp-22616,1.852
Ag5CF4,mp-29536,1.9268
Mo2P2O9,mp-1040930,1.6082
Tm2MgCr2O8,mp-2218774,1.7433
NbP2S2Cl5,mp-679987,1.6909
LiEr2Tl2(WO4)4,mp-1235802,1.9454
Se3(NO6)2,mp-1201046,1.6671
BaSrBiSbO6,mp-1518348,1.7818999999999994
Ba3Nb2CoO9,mp-561599,1.6878000000000002
Gd2FeSbO7,mp-1224759,1.8178
Rb2O2,mp-7895,1.7600000000000002
Al5AgS8,mp-1228170,1.5406000000000004
SbBr(OF3)2,mp-572526,1.9974000000000005
Hf2Sb2Pb4O13,mp-1224490,1.7838000000000005
RbAu(SO4)2,mp-555741,1.7149
Mn2VHO5,mp-1199415,1.5417999999999998
LiVF4,mp-767699,1.8116
Y2AlN3,mp-1245982,1.8447
CaFeAsO5,mp-1325009,1.7460999999999998
NaBi3(IO2)2,mp-1220823,1.8933
Eu(BH4)2,mp-1195232,1.5599
VPH5O7,mp-766832,1.6235
CoH14SeN5O7,mp-1199552,1.9254
SrLiGaN2,mp-568385,1.8413
Hf2N2O,mp-780061,1.9270000000000005
Mg2TaMoO6,mp-1373336,1.8878000000000004
Rb2TaCuSe4,mp-11924,1.9549
CsSbPO4F3,mp-728910,1.6413
Mg3Fe4(WO4)6,mp-1042815,1.6917999999999995
MnPH4N(OF)3,mp-1197191,1.5509
LuVO3,mp-755583,1.5724999999999998
MgCrGaO4,mp-2223638,1.5387999999999995
Li4Mo3O8,mp-690551,1.5585000000000004
NaMgNiO2,mp-2210654,1.7625000000000002
Cs3LaO3,mp-768536,1.5936999999999997
Ca(GaSe2)2,mp-13873,1.9773
Dy2MgV2O8,mp-2218388,1.67
VH4C4O6F,mp-1207872,1.6558000000000002
Na6MgO4,mp-755084,1.9734
Li4Ti4V(Fe2O9)2,mp-767675,1.6191999999999998
Mg14CdFeO16,mp-1035518,1.8805000000000005
V2Bi4O11,mp-766025,1.9526000000000003
Si2H2O3,mp-627334,1.6959999999999995
KPS3,mp-8267,1.7149
IF7,mp-685049,1.6861
Rb2O,mp-755738,1.6455
AlIO,mp-1214837,1.6932
Mg4SiN4,mp-1247369,1.7988
Li2Cr2(SO4)3,mp-1178063,1.7921000000000005
NaZrCu3Se4,mp-1180089,1.8694
MgVFeP2(O4F)2,mp-2241265,1.7326
RbB6(HO)8,mp-1203229,1.837
Li3V2P2O8F3,mp-758819,1.9919
Li5Ti2Fe5O12,mp-756825,1.5239999999999996
Rb2MgFe4O7,mp-2228564,1.5331
CdBiS2Br,mp-561079,1.7294999999999998
Na4Sc2Ti2Si3(SO8)3,mp-2713720,1.5253
P4WO13,mp-752714,1.9875
Li7Mn2(CoO4)3,mp-1174505,1.5918
La2Si2PbSe8,mp-1223272,1.9379000000000004
LiNbNiO4,mp-752702,1.6159999999999997
BaHg2(ClO)2,mp-555736,1.6109999999999998
Ca(GaN)2,mp-1246270,1.5542999999999996
VCo2BO5,mp-1207853,1.5536000000000003
As3H12C4S5N,mp-759553,1.9453
LiVF5,mp-753289,1.5758
Na4Mg(FeO3)2,mp-2233734,1.639
Ba2MnO3,mp-504545,1.5072
K2W4O13,mp-757860,1.7604
SrLaTiFeO6,mp-1218147,1.7674000000000003
CaFeAs2O7,mp-1042824,1.9294
Sr4Ti3O10,mp-31213,1.7833
Li4Mn(SiO3)3,mp-780578,1.812
C3N4,mp-971683,1.9701000000000004
Nd(FeO2)3,mp-1220447,1.7674
LiCaAs,mp-961684,1.8768
Na5Mg2Ti2P5SO24,mp-2715134,1.9488
K3Hg3S2Br5O6,mp-561414,1.999