pretty_formula,material_id,band_gap
NbFeO4,mp-31761,1.8298000000000003
Li2CrFeO4,mp-755550,1.7314999999999996
Y2FeSbO7,mp-1216121,1.8064
Li8FeCo3O8,mp-752780,1.6028999999999998
Li3Fe2(SiO4)2,mp-850922,1.854
BP(IBr)3,mp-567433,1.9337
SbBr5F6,mp-541259,1.7316
In2H5(SeO4)3,mp-1213630,1.9055
V2ZnP2O9,mp-1041048,1.6501
Cs2CeO3,mp-1178415,1.9291000000000005
CrPO5,mp-26924,1.5145999999999995
ZnCr2(PO4)2,mp-1040837,1.9589000000000003
TlIn5S8,mp-1100996,1.5410999999999997
Li3V(PO4)2,mp-757268,1.7255000000000005
La2SbS5Br,mp-1202647,1.8641
K2Li14Pb3O14,mp-504806,1.9157
KNa9In2O8,mp-553903,1.7136
Ba2NdBiO6,mp-546321,1.6830000000000005
LiV(CO3)2,mp-757999,1.76
Mg(AuF4)2,mp-8708,1.6964
MgVFe(P2O7)2,mp-1233455,1.5917
Bi26Mo10O69,mp-1229320,1.5536000000000003
K3BP2,mp-9664,1.6658
CsAuO2,mp-997024,1.5219000000000005
Hg3AsO4,mp-556339,1.7517
Zn2SnWO6,mp-1344130,1.5411
Li2AlNiO4,mp-755427,1.5322
Fe4OF7,mp-753033,1.9473
La2MgMnO6,mp-19406,1.715
Hg2C(NCl)2,mp-568433,1.8762
Sr(FeO2)2,mp-21926,1.6125
LiCr3(P3O10)2,mp-779048,1.7223
SbN2Cl5,mp-726396,1.5716
YV(WO4)2,mp-1042176,1.6793999999999998
SeN,mp-574424,1.9567
LiFe2OF5,mp-776551,1.7646000000000002
Na2AgAsF6,mp-1111093,1.9406
CrP6(WO8)3,mp-775489,1.7488
LiV3O8,mp-27503,1.793
Cs3BrO,mp-1205638,1.5868000000000002
VP3(HO5)2,mp-504844,1.9608
YVO3,mp-18883,1.5639000000000003
AuCS2Cl3,mp-556112,1.8955
Mg30CrSnO32,mp-1095707,1.6296000000000008
TlIn3S5,mp-572596,1.7139000000000006
LaGaS2O,mp-7018,1.9299
ZnSeO4,mp-754358,1.8189
Tl3VSe4,mp-1025549,1.5636
V2Ge2O7,mp-752409,1.6433
Gd2W2O9,mp-779920,1.8332
La2Si2O7,mp-706477,1.8528999999999995
SbSe3N2Cl7,mp-570693,1.6951999999999998
Co2As2O7,mp-1288387,1.9929000000000008
LiFe2O3,mp-1309364,1.5428000000000002
LiVP2HO8,mp-1576561,1.5437999999999998
SbHC3(NCl3)3,mp-705514,1.9047
Li4FeTe(WO6)2,mp-1569036,1.5467999999999995
LiInO2,mp-5488,1.8143
MgV2(OF3)2,mp-2217347,1.5993000000000002
Rb2LiSbI6,mp-1110746,1.7214999999999998
V4OF11,mp-760888,1.5669
Nb2Tl5S4Br9,mp-558099,1.6588000000000005
BaPr2Ti3O10,mp-557074,1.9473
LiCr3O8,mp-674219,1.6223999999999998
Li2CrO3,mp-755795,1.7417
C,mp-731594,1.6096
Fe5(SiO4)3,mp-1198345,1.9406000000000003
VMoO5,mp-1100912,1.5372
Na9Ca5Nb7(PO4)18,mp-2714812,1.6562
AlFeO3,mp-21216,1.6518000000000006
CoPb2WO6,mp-20069,1.87
LiVP3HO10,mp-774404,1.7877
NbSb3O8,mp-1220489,1.9026000000000003
K2Pt(NO2)4,mp-669498,1.9671
CaSb10(S3O5)2,mp-504882,1.7765000000000004
Na2In2Mo5O16,mp-1221585,1.5639999999999996
RbCdAuS2,mp-558536,1.9376
Na2Zn(SnS3)2,mp-1190487,1.7271
Zn3SbN3,mp-1271278,1.5349
Dy2MgS4,mp-1232125,1.9814
Li4Mn3Cr2Sn(PO4)6,mp-1177389,1.915
Li9Co3P8O29,mp-1101531,1.5756
Si2H2O3,mp-1179509,1.5741
La5(SiN3)3,mp-569576,1.9651999999999996
Li2MnF5,mp-556229,1.8414
K6NaAu2IO8,mp-555392,1.8846
Li2VCrP2(O4F)2,mp-759082,1.8744
Ca(BiO2)2,mp-1041524,1.7862999999999998
Tl2GePbS4,mp-653561,1.9189
ZrTiZn4O8,mp-1215235,1.7809
Li2FeAsCO7,mp-771027,1.8906
Li3Fe2(PO4)3,mp-772738,1.9001
LiV(CO3)2,mp-1176757,1.9606
LiMnO2,mp-2506805,1.6652
VOF3,mp-760338,1.955
V3P4PbO17,mp-699581,1.7321
TlBr2,mp-27398,1.7922000000000002
Cs2AgAu,mp-1097285,1.975
CaTaNO2,mp-556340,1.6121999999999996
Ca3Fe2(WO6)2,mp-1275790,1.9666
LiFeOF2,mp-781596,1.7248
ZnAgPO4,mp-1193999,1.7382
Ir2(Se3Br2)3,mp-1195597,1.5193
ZnCoF5,mp-1377161,1.9585
MgFePO5,mp-1445676,1.8649
Ti3(SnO5)2,mp-759737,1.6193999999999995
Ca3(GaN2)2,mp-571162,1.9148000000000005
VSi3Bi61O100,mp-1217882,1.998
Na6Ca6Ti2SiS11O48,mp-2713611,1.5087000000000002
Li2CuPO4,mp-753179,1.9750000000000003
LaMgI5,mp-756578,1.9695000000000005
Li5VO3F2,mp-753535,1.7527
K2TlAsBr6,mp-1111589,1.5711
Na3CoO3,mp-777919,1.5922
Bi2Pd(SeO3)4,mp-1201497,1.7711
K3CrC3N3O4,mp-554797,1.8068
LiLa5Ti8O24,mp-768320,1.9374
Ba2Bi6O11,mp-674537,1.8359
Li10Fe(SiO5)2,mp-758900,1.8141000000000005
Li4V3OF11,mp-780283,1.8083
KBaLaSeO6,mp-1521248,1.9314
Na9Ca5NbSi3(SO6)6,mp-2712768,1.6891
KVF4,mp-560997,1.9296
Li3Cr(PO4)2,mp-766421,1.748
Rb4Mg(MoO4)2,mp-2228624,1.7079
MgVCrP2(O4F)2,mp-2226915,1.8437
K3As(PSe3)3,mp-1197620,1.5724
NbGa3SiS5O24,mp-2713013,1.6868000000000003
Zn2BrN,mp-1105648,1.8521
SnBrF,mp-989193,1.9941000000000004
MgZn4(Se2O5)4,mp-1234141,1.7956
Cd2As2O7,mp-10486,1.5916
K3LiSi4,mp-28316,1.5221999999999998
Fe3P2(HO)8,mp-1212790,1.6698
Ce3Th4O14,mp-766570,1.7286
MnV4CoO12,mp-756893,1.7008
NaSr2ReO6,mp-1206737,1.773
Li2Cr(PO4)2,mp-757515,1.7776
NaLiTe,mp-962066,1.8833
Li2AlNiO4,mp-756603,1.5284
Li3VS4,mp-755642,1.6175
Dy3TaO7,mp-1173044,1.9753000000000005
Dy3TaO7,mp-674513,1.9902
SbOF3,mp-758096,1.9231
Rb2MoAuF6,mp-1110587,1.5341
Li3Nb2Fe3O10,mp-753638,1.6023999999999998
BaTi2O5,mp-3943,1.8301000000000005
Ca3Ti4PbO12,mp-1227856,1.6864999999999997
Ca3Ge3(MoO6)2,mp-1332615,1.8503000000000005
Fe2Te2(PbO4)3,mp-1225390,1.7540000000000004
LiRhO2,mp-14115,1.5153
S4IN3Cl2,mp-555435,1.6235
Li5VO4F,mp-761103,1.522
Na2TmCuCl6,mp-1111042,1.7455
Zn(MoO2)2,mp-1041749,1.5260999999999996
Ag2Mo2O7,mp-27966,1.5567
VGa2O5,mp-756465,1.5235
Ru(C4N3)2,mp-1246365,1.8156
Mg4Te3S,mp-1222100,1.858
B2(CN2)3,mp-989459,1.517
Na2Nb3InSi4(SO12)2,mp-2715579,1.9359
KTlF3,mp-1111295,1.9647
Mg7SiN6,mp-1246442,1.5538999999999996
Na3AuO3,mp-768915,1.8237
Cu4H3C2N5,mp-601817,1.6966
LiMn(PO3)4,mp-26783,1.7762
Ho2S3,mp-32787,1.9342000000000008
MgV2Zn2(SiO5)2,mp-1234721,1.7481000000000004
K2HoNb5O15,mp-1212050,1.8644000000000005
CaV2(PO5)2,mp-681165,1.8445
BaSrYVO6,mp-1522214,1.6099000000000006
Na2La2Ta2Si3(SO8)3,mp-2713502,1.8446
Ba2YWO6,mp-1520624,1.7928000000000002
K2Zn(H2N)4,mp-722979,1.98
KICl4,mp-647366,1.9531
MgCd2(CoO3)2,mp-2218080,1.5846
Na5Mg2Nb2SiP5O24,mp-2715858,1.6267999999999998
ZnW2O5,mp-1369997,1.6465999999999998
TaAlO4,mp-675172,1.8382000000000005
Na5La2SiSn2P5O24,mp-2716081,1.8366
Ta2Zn2CrO8,mp-1662022,1.6847000000000003
Li2V(SiO3)2,mp-766231,1.8922
Ba3Sb2S7,mp-1195624,1.9022
Ge2N2O,mp-779457,1.7353
Sm3B(SO)3,mp-1105337,1.5301000000000005
NaMg2Ti2PS5O24,mp-2714226,1.8074
Ba6V4S11O5,mp-556461,1.9141
Mg14CoNiO16,mp-1035300,1.8233
Li5Fe8(BO3)8,mp-777343,1.5812
Al8(SiO6)3,mp-1247920,1.5203000000000009
Ti3N4,mp-1080190,1.7589
Na2Y6Ta2Si3(S3O16)3,mp-2716459,1.8518
Na2Ti4Nb4Si7S5O48,mp-2715787,1.8145
LiMn2F7,mp-752545,1.5514
Ca3CdO4,mp-1227631,1.7349
Nd10S14O,mp-560608,1.8352
BaSrGdBiO6,mp-1518035,1.6166
MgCr3(FeO4)2,mp-2228448,1.9517
Sr4TaFeO8,mp-1218412,1.7730000000000006
NaV(SO4)2,mp-554124,1.6873000000000002
La2Fe(SeO)2,mp-1201876,1.6513
TaFeO4,mp-861559,1.8690999999999995
La2MnZnO6,mp-1275611,1.5789
RbBaMnO4,mp-17445,1.8112
BaNaSmSeO6,mp-1517581,1.8646000000000005
Li2V(OF)2,mp-752823,1.6495999999999995
Mo3(AsO4)4,mp-1041702,1.9565
KPbBr3O,mp-1102208,1.6397
K2MgFe4P6(O4F3)4,mp-1233972,1.6998000000000002
K2NaBP2,mp-567836,1.771
Na2Al3As9O28,mp-1221481,1.9093
KC(NO2)3,mp-669555,1.7013
Ba2Mg(WO4)2,mp-2224765,1.7421
Na6ZnSi4Sn3(SO12)2,mp-2714536,1.7742
TbH2Br,mp-642807,1.6956000000000002
Ti(Sn2O5)2,mp-766391,1.6151
SbH5(Cl3O)2,mp-757924,1.9313
Li4V2Si(PO6)2,mp-777857,1.9381
Na3Nb4Zn2(PO4)9,mp-2713371,1.9929
Ca3Co2(SiO4)3,mp-1163930,1.9902999999999995
Hg3(SeCl)2,mp-27851,1.7701
Ta2MnO6,mp-34475,1.6212999999999995
Dy2MgV2O8,mp-2218643,1.6629
MgFe4(OF)4,mp-2218597,1.6527999999999998
Nb2O5,mp-680944,1.6138
ZnPbF6,mp-13610,1.7555
AsSeS2(NF3)2,mp-1214996,1.5211
Li3VO3F,mp-758195,1.7782
CaFeO2,mp-1079680,1.806
NaV(PO4)2,mp-779031,1.8008
Fe4Co3(PO4)6,mp-18085,1.8370000000000009
V2CdP2O9,mp-21665,1.7336
LiHo2Cu(SiO3)4,mp-1235309,1.7999999999999998
Rb3RuF6,mp-1238967,1.8235
Mg3V4(PO4)6,mp-1232134,1.9549000000000003
BaPd(SeO3)2,mp-1205352,1.6510999999999998
NaNbAl3P3(SO8)3,mp-2716377,1.9894
KNaNb2O6,mp-1223345,1.9821
Nb2FeO6,mp-22366,1.8229
TlBS2,mp-8946,1.7590000000000003
Li5BiO4,mp-768986,1.6845
BaBiBrO2,mp-1227937,1.6455
Li2Ni(CO3)2,mp-759758,1.7797999999999998
YNi3Se2ClO8,mp-1048551,1.5878
Li9Al(CoO4)2,mp-770726,1.9766
H8C3N2O,mp-644330,1.686
MgFe2Si2BiO9,mp-2232245,1.7527
Rb3Ta2AsS11,mp-1209358,1.8938
Te(HO)6,mp-625993,1.9738
SrLaI5,mp-755393,1.9331
MgSO6,mp-1202225,1.7555
BC2N,mp-629458,1.661900000000001
Gd2S2O,mp-561849,1.7211000000000003
Fe10OF19,mp-887354,1.8969
H2Os3(CO)10,mp-600347,1.7320000000000002
Ti4Fe(PO4)6,mp-1196389,1.5086
Na2Sb4O11,mp-1176373,1.8584000000000005
Na2La3NbSi2(SO6)4,mp-2712664,1.7759999999999998
PNO4,mp-1209569,1.7217
As2Se3S3(NF3)4,mp-1229221,1.5494
V(SeO3)2,mp-557295,1.9721
Cs2LiSbI6,mp-1112673,1.7376
Li3Fe8(BO3)8,mp-764938,1.7381999999999995
Na3ScSi3Ge3(SO8)3,mp-2716574,1.9304
V2OF5,mp-752923,1.509
MgCdTe2,mp-1232369,1.8727
SbH12C4NF4,mp-600218,1.5738
NdTlS2,mp-3664,1.6456
LiV2F7,mp-776616,1.8153
MnTe2O5,mp-16994,1.8199
Li3MnCoO5,mp-1173998,1.6462
Ba3LiTi5Nb3O21,mp-766208,1.8373
CaSnS3,mp-1100330,1.7213
MnH30C8(N13O9)2,mp-728793,1.6095
TlSn2I5,mp-1208036,1.5628999999999995
Ba3Sr5Ti8O24,mp-1075943,1.723
Mg30CrSiO32,mp-1039892,1.8290000000000008
Fe4H14O13,mp-626827,1.8087
V2FeO6,mp-1312206,1.923
BaYInWO6,mp-1520192,1.6116
Li7VO5F,mp-761099,1.7161000000000002
Li6Mn2B4SO16,mp-831077,1.6433999999999995
CaSn(GeO3)2,mp-1043030,1.8707000000000005
VCrO3,mp-1101715,1.6122999999999994
Sr3(BN2)2,mp-1218347,1.9096
MnV4NiO12,mp-850419,1.8069
NaLi(AsS2)2,mp-1220728,1.5983999999999998
WSCl4,mp-1205307,1.8865
Sr3ZrTi2O9,mp-1218576,1.9426
CaMnGeO4,mp-1214074,1.7912999999999997
Ca(BiO2)2,mp-1044601,1.6532999999999998
MgSc4(FeO3)4,mp-2220857,1.7957999999999998
ZrIn2O5,mp-1094015,1.5216999999999996
Cd5Ge(PO6)2,mp-1227196,1.8863
La20S29O,mp-773116,1.9418
TaP2Se2Cl5,mp-571250,1.7911
CsDyCdTe3,mp-12487,1.5476
K2Zn3Se4,mp-1232308,1.985
Li9Mn2Co5O16,mp-1175794,1.6401000000000003
CaUO4,mp-632927,1.7785000000000002
S3N2,mp-1120742,1.9798
SN,mp-236,1.9571
Sr3U11O36,mp-667349,1.5934
Sb2S19F12,mp-723419,1.9712
BaMnO3,mp-19267,1.7073
Li2FeF5,mp-776155,1.6833
Na6Mg4Ta20Si21(S5O48)3,mp-2715797,1.8389
UH16C4(NO3)4,mp-738654,1.9701
Hg2Sb7H2Xe3F59,mp-1195797,1.7275
ZnS,mp-557054,1.6894999999999998
LiBi3(IO2)2,mp-775430,1.7552
CsTaPS6,mp-553976,1.7818
KSmGeSe4,mp-11634,1.6626
Li2CrFeO4,mp-754386,1.6805999999999996
V2CoO6,mp-755979,1.5064000000000002
LiVO3,mp-763200,1.5689000000000002
Ca2CrWO6,mp-1282800,1.7595
CsLuCdTe3,mp-12492,1.5415
K4MgMo2(SO3)2,mp-2232585,1.6681
MgV2(OF3)2,mp-2217647,1.937
C2S3,mp-1214192,1.7265
La2MnFeSe2O3,mp-1223250,1.516
Mn(BH4)2,mp-1190456,1.905
VF4,mp-757234,1.7662000000000002
Fe8H10O17,mp-1182247,1.7132
Ba2LaI7,mp-755770,1.6953999999999998
Na3Nb8Zn4P15(SO24)3,mp-2716206,1.8815
RbNb2PS10,mp-6708,1.5518
Al3Co(PO4)4,mp-1215069,1.6574
CsTlBr4,mp-573702,1.9724
Li3RhF6,mp-1237062,1.9018
K2O,mp-776081,1.7426
Ba2SmBiO6,mp-1520510,1.8538
Ba2PrVO6,mp-1520074,1.6409999999999996
Tb2CdS4,mp-34376,1.8688
C2S3I,mp-1214225,1.6642
MgV2Zn2(SiO5)2,mp-2215933,1.9182
Li4CoSn3(PO4)4,mp-758057,1.8892999999999995
LiFe3(OF3)2,mp-754427,1.7498
K2GdNb5O15,mp-1212097,1.8773
Sr4Ta3PO14,mp-1250155,1.7480000000000002
LiCrPO4,mp-26317,1.6001999999999992
Rb2Hg(BSe)9,mp-541819,1.8297
MnH16C4S4(N4Cl)2,mp-1199490,1.6433999999999995
Ba2ErGaSe5,mp-1105790,1.6730999999999998
Na12Mg4Nb2Si6(SO12)3,mp-2714363,1.6511
Na3Mg3GePS5O24,mp-2713281,1.8004
U(HO2)2,mp-625087,1.9023
NaFe(SeO4)2,mp-561519,1.9104
MgZr(MoO4)2,mp-2218131,1.5341000000000002
LiVP2(HO4)2,mp-759010,1.948
LiMg14BO15,mp-1035344,1.9504
Rb2NaGaBr6,mp-1110631,1.6023999999999998
Tb2MgS4,mp-1232098,1.9492000000000005
Rb2MoO8,mp-1209701,1.9098
Li2VF6,mp-1177791,1.8411
SmFeC6(N3O2)2,mp-818592,1.6804
Ba2La2MgZn(WO6)2,mp-2230018,1.6864999999999997
YNb2NO5,mp-849583,1.9845
Ba2CoSi2O7,mp-562216,1.7828
P3(WO6)2,mp-767435,1.8439
Ba2MgVFeO6,mp-2223880,1.87
Zn(FeO2)2,mp-530392,1.5894000000000004
Sr2La3Ti2Cr3O15,mp-706258,1.5872000000000002
Nd(BrO2)3,mp-1210487,1.7495999999999998
V2OF5,mp-761130,1.5132
Ge2N2O,mp-1178193,1.8285
Tl3Cr4AgO14,mp-1203083,1.976
SrV3P4O17,mp-15866,1.8247
CrSbO4,mp-755493,1.6034000000000002
AsS7IF6,mp-637112,1.8164
MnV5H20NO22,mp-1199603,1.9797
Li7VO5F,mp-759471,1.9825
Na6In8Si3(S3O16)3,mp-2713837,1.6844
LiFeSnO4,mp-756311,1.6326999999999998
Rb8Fe2O7,mp-561139,1.6081
K2U2O7,mp-29361,1.6483
Na3Mo2N5,mp-1029845,1.8154
NbAl2(SeCl4)2,mp-1198176,1.9186
K4CO4,mp-550895,1.6002
Li2V(OF)2,mp-1302912,1.9125
ZnCoF5,mvc-14327,1.575
CaLa2Co2Sb2(PbO6)2,mp-1233609,1.9117000000000008
UTe2PbO8,mp-555259,1.7605999999999995
Ba3WN4,mp-680210,1.5479000000000005
Sr2TbVO6,mp-1521423,1.6184000000000005
NaFeO2,mp-19359,1.9889
Pm2MgSe4,mp-1232215,1.5693
Na2CdSnS4,mp-2831941,1.951
V2Co(HO2)4,mp-757855,1.8264
MgV2CoO6,mp-2217239,1.9116
VPO5,mp-25203,1.9882
Ti3Sn7O20,mp-765970,1.7439
NaYSnP2SO12,mp-2712801,1.8225
K2Cr4Co(HO4)4,mp-601334,1.9353
SrTe,mp-1958,1.7616
Li2AlCoO4,mp-770610,1.5132
TiP2(S4Cl)2,mp-1203568,1.8109
BaCaDyBiO6,mp-1520391,1.9086
Cs3TlO3,mp-768537,1.5384
KS3,mp-1196514,1.8889
Li2In2GeSe6,mp-1191200,1.5416
CsLiMg6O7,mp-1031024,1.873
AlInSe3,mp-862787,1.6095999999999997
NbAl3SiS5O24,mp-2712850,1.6665
K6MgO4,mp-12171,1.6783
Ca(SnO2)2,mp-1350206,1.6843000000000004
MnV2P2(H4O7)2,mp-698721,1.6895
Ba2DyBiO6,mp-1516815,1.7331
MnH8C2NCl3,mp-567451,1.6327000000000005
Sr2VInO6,mp-1521078,1.7975
Cs2YCuI6,mp-1112877,1.7212
Gd2MgTl2(WO4)4,mp-1234918,1.8432
LiAgF2,mp-759658,1.527
NaGdS2,mp-8260,1.762
NaNb6O15F,mp-8084,1.5654999999999997
Li2V2(SiO3)3,mp-771775,1.5265000000000004
V4CuNiO12,mp-756167,1.9302
Li4MnV(PO4)3,mp-768106,1.8184
H12RuC4S2N(ClO)3,mp-1204316,1.8301
Mg3Si4(SbO7)2,mp-1249986,1.9461000000000004
ZrHg3(SBr3)2,mp-1207395,1.8586
SrNiF6,mp-555718,1.7074
CsAsSe2,mp-581864,1.6394
P2PbO8,mp-1200154,1.5396999999999998
La3Fe5O12,mp-1212003,1.9344
ZnSe,mp-569679,1.9671
UO3,mp-21858,1.9038
CsVFeF6,mp-1228886,1.814
CaBiWO5,mp-1042689,1.5585999999999998
V2Co2O7,mp-27156,1.8291
Cs2Sb4S7,mp-27146,1.6439
LiMnF4,mp-775154,1.701
LiVPO4,mp-773097,1.8992999999999995
NbFeO4,mp-675305,1.7029
LiVBO4,mp-754861,1.5346
Li5Co7O3F13,mp-849472,1.6348
CaTe4H4(O3F4)2,mp-1234072,1.9457
Cs2CdBi2S5,mp-559668,1.7308999999999997
Mn3SnO8,mp-770865,1.6699000000000002
Fe5(BiO4)3,mp-531715,1.7527
AgC3N3O,mp-650510,1.5118
BaCaSnWO6,mp-1518423,1.9315999999999995
MoP2O7,mp-26616,1.9637
CsMg30MnO32,mp-1038041,1.8102
MgFe2(BiO3)2,mp-2217296,1.874
Li5SbS,mp-1177072,1.5625
MgNiO2,mp-1405211,1.6718000000000002
TaAgO3,mp-9890,1.6614999999999998
Li3V2(PO4)3,mp-6396,1.7296
MgIn2O4,mp-7831,1.838
Ca2TaN3,mp-1029773,1.9592000000000005
Li4NiSn3(PO4)4,mp-776070,1.7584
SbSO4F3,mp-769377,1.8163
Ti2Cr3Sb3O16,mp-776079,1.6584999999999996
Y2Hg2O5,mp-755511,1.6972
NbBr5,mp-28601,1.5583
Na4W(NO)2,mp-19125,1.9524
LiBi3O5,mp-768997,1.8414
NdPS4,mp-3694,1.995
U2Nb6O21,mp-1217425,1.517
RbSmGeSe4,mp-567873,1.6011000000000002
Cs5Na(W2N5)2,mp-1203906,1.8501
Ba2PrBiO6,mp-1523128,1.7795999999999998
U3(HO5)2,mp-626062,1.9927
Pr5(SiN3)3,mp-1200944,1.8698999999999997
VPO7,mp-738365,1.6021
S3N2,mp-1120744,1.6385999999999998
NaPHO3,mp-1210140,1.9694
MgV2ZnO6,mp-2217237,1.7980999999999998
KUVO6,mp-645555,1.9565
Na4B4Sb2SO16,mp-769713,1.882
HgSeO3,mp-10798,1.9987
Ca2CrFeO5,mp-1214173,1.7324000000000002
Li12V3CrP4(CO7)4,mp-766538,1.9742
MgMn(SbO3)2,mp-2217260,1.9881
Rb2TaCuSe4,mp-664012,1.9771
CsCuS4,mp-18003,1.565
K3NaS2,mp-1223561,1.9482
MgV2CdO6,mp-2217172,1.6446
VPO5,mp-559299,1.8034
Cs3Nd(PS4)2,mp-572442,1.9675
BaTeS3,mp-27499,1.9088000000000005
Li12VNi3P4(CO7)4,mp-766677,1.5977
AlCo3Se2ClO8,mp-1264957,1.8001000000000005
H2Ru4(CO)13,mp-721193,1.7978999999999998
Ba6LiNb2Ir(ClO6)2,mp-1235230,1.5715
LiUNbO6,mp-17807,1.7534000000000003
Mn2AsHO5,mp-765297,1.654
CrH6C3(S2N)3,mp-1196508,1.8989000000000005
Mg2Ta10Si9(SO8)9,mp-2713808,1.5126000000000002
PbWO4,mp-641441,1.9524
NaMo2P2O9,mp-1013843,1.5175999999999998
Na2SnBPO7,mp-768592,1.8592
LiMn2F7,mp-1176671,1.9566
Sr3Ca(PbO4)2,mp-1218395,1.8662
MgFe3P3O13,mp-1041464,1.943
AsSe3(ClF2)3,mp-23575,1.9559
Li2Co(CO3)2,mp-759685,1.7619
As2S3(NF6)2,mp-541204,1.983
Ba2MgCrMoO6,mp-2217938,1.7481999999999998
Na14Ti3Zn5Si6(SO8)6,mp-2714198,1.5342
LiTiCoO4,mp-1313679,1.8244
Sr2MnWO6,mp-1519277,1.6795
LiVP2O7,mp-26227,1.9415
H9RhC5NO5,mp-1196715,1.8303
ScBN2,mp-1245522,1.873
Al2Zn(SeS)2,mp-1228455,1.7622
CsHgCl3,mp-29845,1.9882
LiV2OF5,mp-761104,1.8756
K3SnIrCl8,mp-568970,1.5941
Li5MnCr3O8,mp-760296,1.9825
Ca2BiSbO6,mp-1521626,1.7213000000000005
La2Mn3Sb3O14,mp-1223293,1.5179
KMg14BO16,mp-1035582,1.8494
AuBr,mp-570140,1.9716
K5V9H20PtO37,mp-1194921,1.9297
S5N5Cl,mp-28374,1.5128
TiMn3O8,mp-774302,1.7216
SbN2F5,mp-725219,1.7336999999999998
V3OF11,mp-759668,1.5254
YTlS2,mp-1066131,1.5298999999999996
SbCl5,mp-570796,1.6912
Si2TeH22Pd(C4Cl)2,mp-1204279,1.7525
Dy2MgCr2O8,mp-2218943,1.5468000000000002
LiFeP2O7,mp-1176772,1.6172
Na3LaSiSn(PO6)2,mp-2715438,1.6235
Sr2UZnO6,mp-554059,1.8031
MgV(TeO3)4,mp-2229028,1.596
Mg2FeSbO6,mp-1369579,1.5606
MgV4As2O13,mp-2230165,1.5504999999999995
Ba(HoS2)2,mp-1193583,1.7501999999999995
Na9Ca5Ta7Si9(SO8)9,mp-2714911,1.8862
K2Nd2Mg(SO4)4,mp-1233195,1.6216999999999997
Cr3(FeO6)2,mp-772616,1.7861
FeWClO4,mp-556603,1.9249
Tb2MgSe4,mp-1232286,1.5753000000000004
Li10Co(SiO5)2,mp-763575,1.9617
V2ZnO5,mp-1043287,1.9815
LiMn2OF3,mp-753996,1.5709000000000002
CaReN3,mp-989606,1.5174
LiV(CO3)2,mp-763059,1.8881
Ba2Zn(HO)6,mp-1182663,1.569
CeZr3O8,mp-1019600,1.5300000000000002
Li3Fe2(SiO4)2,mp-1303127,1.8254
LiFe2O3F,mp-776573,1.5570999999999997
Li2VOF4,mp-1177748,1.8189
MgV3O8,mp-766232,1.8235
Li10FeCo9O20,mp-761094,1.9631
CaV2Zn2(SiO5)2,mp-1233321,1.7289999999999996
Li6V2B4SO16,mp-772590,1.92
La5Cu6S7O4,mp-1223375,1.7699999999999996
Pr6Cd(SiS7)2,mp-1219860,1.8397
KMgNi2H3(SeO5)2,mp-1233156,1.6715000000000002
MgFe6O7F5,mp-2231426,1.6164999999999998
TiVO4,mp-1272170,1.5591
Tm2MgMo2(ClO4)2,mp-2232487,1.7422
MgVBr2O,mp-2242023,1.9932
Li4VCr3O8,mp-769593,1.7184
TaNO,mp-4165,1.9338
LiFeSiO4,mp-1176688,1.6478000000000002
YSeCl,mp-962058,1.8941000000000003
TlSb(PSe3)2,mp-1105142,1.553
Li2AlVO4,mp-770519,1.9215000000000004
Ba2V3HO9,mp-1192628,1.9502
YFe(WO4)2,mp-1042339,1.7007000000000003
Cs7U8V2ClO32,mp-581156,1.5213
Li7Cr3Fe(PO4)6,mp-780107,1.5433
BaLa4TiCr4O15,mp-1352809,1.5538999999999996
K2NiC4(SO)4,mp-1211754,1.7672
BaAu2(SO4)4,mp-1190864,1.7853
Li4Fe3Co(PO4)4,mp-758853,1.5837
MgV(Si2O5)2,mp-1043519,1.8762
Na6MgV2(SO3)2,mp-2240862,1.6144999999999998
VAgOF4,mp-1194388,1.9517
Li2V2OF6,mp-759649,1.6403
FeAsO4,mp-21016,1.5579999999999998
MgO,mp-1245128,1.9477
Na2Y3Ta5Si6(SO8)6,mp-2713943,1.9296
Hg3AsBrO4,mp-558945,1.8436
Cs2NaInBr6,mp-996943,1.8935
Er2MgTl2(WO4)4,mp-1233962,1.886
LiMnF4,mp-780710,1.8393
MgSc2V2O8,mp-2218897,1.673
Fe(C4N3)2,mp-1213124,1.5943000000000005
Ba2InBrO3,mp-555212,1.8237
Li4MnV3(P2O7)4,mp-775256,1.9294
RbMnF4,mp-553981,1.7352
La9In5S21,mp-1224749,1.7648
Fe2(TeO4)3,mp-1042761,1.5471
CsMgFe(MoO4)2,mp-2219036,1.6018
FeP(HO2)2,mp-1212769,1.5012
UP2H36C12Br2(N3O2)2,mp-1202468,1.5625
Li2Ti3CoO8,mp-1662153,1.9785000000000004
UTiNb2O10,mp-556509,1.9478
KCaCeSbO6,mp-1517767,1.9872999999999996
SrLiNdCoO4,mp-1236479,1.9912
LiMnB3(HO3)3,mp-778282,1.5952
Li9Mn2Co5O16,mp-1175388,1.5378000000000005
CoSb(PO4)2,mp-1666679,1.6506000000000003
LiVFeP2(HO5)2,mp-760043,1.5288000000000002
AlInN2,mp-1245856,1.6253000000000002
Li2V(PO3)5,mp-540330,1.9238
SbSe2NCl8,mp-1203978,1.5296
Mg21FeSi12(HO16)3,mp-695496,1.841
Li5TiN3,mp-686129,1.5392
K4PbO4,mp-22328,1.7002000000000002
Bi2O3,mp-23195,1.6582000000000003
TeS4(NCl)4,mp-554646,1.9097
SrU(SeO4)2,mp-556481,1.9814
K3AlI6,mp-1110930,1.7713
C,mp-723638,1.802
CaAlFe3O7,mp-1214299,1.8298
Ba2GaBiSe5,mp-1203584,1.7506
BaSrLaBiO6,mp-1522424,1.8846000000000005
KLa(PSe3)2,mp-571662,1.9746999999999997
MgAg4Te8(MoO12)2,mp-1233805,1.8628
Sb4I2O5,mp-772282,1.9298
UZnH5(SeO5)2,mp-1210423,1.6161
Cs2InBiCl6,mp-1112889,1.7612
Na6NiO4,mp-1567910,1.5687
Sb2Cl7F3,mp-1209192,1.5194
Li5Fe5(NiO6)2,mp-771236,1.6764999999999994
MgFeAs2O7,mp-2218071,1.8007000000000002
Zn(SbO2)2,mp-1044897,1.7082000000000002
Ag3Mo3AsO13,mp-1214986,1.7696
Mn3Ag2(P2O7)2,mp-542161,1.7732
Cd(In2I3)2,mp-616218,1.5341999999999998
CaP2(WO5)2,mp-1044163,1.8870000000000005
Zn3Fe2(GeO4)3,mp-1363943,1.91
Na5Y3TiSi3(SO8)3,mp-2713411,1.5944
CoSO4,mp-613227,1.8571
LiTiMnO4,mp-1301329,1.5162
K2AgBiBr6,mp-1110921,1.5765
Sr2Tl2O5,mp-1218526,1.5206999999999995
DyTl(PSe3)2,mp-1105239,1.5375
Na5CuSO2,mp-11147,1.5205
V3Sb(PO4)4,mp-754862,1.5302999999999995
SrV2(PO5)2,mp-559580,1.8276
LiMnO2,mp-2861076,1.9854
Li2VSiCO7,mp-770348,1.8635
Na3FeO3,mp-558570,1.8358