pretty_formula,material_id,band_gap
Sr6Mg(Te4O11)2,mp-1233052,1.5863
Na9Sr2La9Ti20O60,mp-695213,1.9453
LiFe4(BO3)4,mp-761256,1.5518
Sr2NbBiO6,mp-1518803,1.7631999999999994
Sr2CaV2(Si2O7)2,mp-1233044,1.9826999999999997
NaPrSe2,mp-999461,1.7927
Li3Cr(BO3)2,mp-756530,1.7919000000000005
Cr2WO6,mp-19894,1.6095999999999997
NaCaCeBiO6,mp-1516618,1.8000999999999996
LiAgAu2,mp-1093804,1.7120999999999995
Sr17(Ta5S21)2,mp-531358,1.8117
ReF7,mp-643265,1.9773
CaSnS3,mp-1100375,1.7351
V2Se2O9,mp-541993,1.9985
Na14Zn5Si6Sn3(SO8)6,mp-2714158,1.629
H36Pb3C10(I5N2)2,mp-1194995,1.7045
LiNdS2,mp-1222303,1.8280000000000003
MgFe4(O3F)2,mp-2224795,1.767
MoH8N2O5F2,mp-1238493,1.6749999999999998
Ba4ScTi4BiO15,mp-1228157,1.8951
LiVSiO4,mp-766923,1.5118000000000005
Sr4Ti3Nb2O15,mp-1218495,1.6529000000000005
Li2WS4,mp-861184,1.9131
UO3,mp-375,1.6349999999999998
Cs2PbO2,mp-562263,1.8593
Li2VF6,mp-1177787,1.9112
Be2CoH6(NF4)2,mp-1214769,1.8831
HfBrN,mp-30302,1.9205
Li4Co5(P3O11)2,mp-26551,1.5374000000000003
NdNb3O9,mp-1173450,1.8044
Er2MgMo2(ClO4)2,mp-2227637,1.7416
Ca3Fe4(SbO4)6,mp-1042781,1.6100999999999996
BaCaSmBiO6,mp-1516788,1.6736
Na8Zn3Si3Sn(SO8)3,mp-2715050,1.7651
RbMg30CoO32,mp-1037040,1.873
TaCu3(TeSe)2,mp-1217991,1.6151000000000004
Ti3(BiO3)4,mp-622198,1.6328000000000005
CdI2,mp-570613,1.9111
CuP4Se4I,mp-571015,1.6632
BaAgTeF,mp-16742,1.5109999999999997
YWF5,mp-1403507,1.9491
Ca(NO4)2,mp-734333,1.9492
Na5La2Ga2P5SO24,mp-2714974,1.8477
TaTiGaO6,mp-1217916,1.7455999999999996
HgS4(NCl)3,mp-669471,1.6755
Ca4SnS6,mp-866871,1.8132
LiMgP,mp-36111,1.5391000000000004
NaSr2LaTi4O12,mp-1220902,1.8277
RbCuC2,mp-5425,1.9542
BaLa3TiCr3O12,mp-699403,1.8927
Nb2Ge2O7,mp-754857,1.524
LiCr4(PO4)3,mp-697664,1.8226000000000004
MgCd2(MoO4)2,mp-2242219,1.7521
Er2MgCr2O8,mp-2218540,1.698
K2PrCuI6,mp-1110944,1.8073
K2B2Se7,mp-542637,1.6406
VFe2BO5,mp-1207977,1.6459999999999997
Na3YSi2SnSO12,mp-2714584,1.7469
LiFeCO3F2,mp-766495,1.7006
Zn3Cd3(TeO6)2,mp-1207534,1.8056
LiTiFeO4,mp-770739,1.8984000000000003
Na2Ca3Zr(SO4)6,mp-2714299,1.7567999999999997
KSrCeSbO6,mp-1522476,1.9233
K3Mn3H2C12O13,mp-728768,1.8800000000000003
Zn2TeWO6,mp-1047504,1.9428
Ga2PdBr8,mp-30945,1.5761999999999998
TaAgN2,mp-1246632,1.9408
BaSrTbBiO6,mp-1518186,1.9042
KMnBr3,mp-29636,1.7869
GaAgGeS4,mp-1224946,1.662
LiCr4(PO4)3,mp-779350,1.5167000000000002
MgBi2F12,mp-1210707,1.8808
Li2CrF4,mp-764423,1.6057
SrI2O,mp-1179200,1.9019
HgINO3,mp-557250,1.9661
FeOF,mp-753333,1.9005
Tl2TeO3,mp-543028,1.9408000000000003
Li3AlCoO4,mp-771900,1.7269
Rb2LiRhCl6,mp-1206187,1.6499
Tl4CO5,mp-1238269,1.5392
LiNb7V12O48,mp-774457,1.6223
RbNaO,mp-8453,1.9856
Na6Ca7Ti(SO4)12,mp-2714925,1.9633
PbCN2,mp-619032,1.8575
CaCo(GeO3)2,mp-1043203,1.935
Ca3TeN4,mp-1245586,1.5167000000000002
Pr2MgS4,mp-1232137,1.7503999999999995
RbLi2(H2N)3,mp-722455,1.9381
V3CrO8,mp-1247235,1.52
Ce(WO4)2,mp-770752,1.7063
RbFe2F6,mp-1195892,1.5418
CaV2(PO5)2,mp-556243,1.8731
Mg(SiB6)2,mp-567224,1.9315000000000009
Y2MgMo2(ClO4)2,mp-2226805,1.7649
Li2CuP3H8O13,mp-773601,1.6309000000000005
PtO2,mp-7868,1.5362
Zr2N2O,mp-766238,1.6014999999999997
NiH44C12N8(ClO5)2,mp-1196382,1.7314
Li3CrBO5,mp-768521,1.5616000000000003
Tb14(PbSe8)3,mp-676110,1.7091999999999996
MgMnO3,mp-770618,1.5712999999999997
K3SnSe3,mp-541875,1.6275999999999995
K3YMgV2O8,mp-2228697,1.5764000000000002
Li2VCrO4,mp-769620,1.5951000000000004
Rb8Mg(FeO4)2,mp-2230085,1.8543
Ba2MgMn2O6,mp-2215870,1.8439
Lu2MgSe4,mp-1232254,1.5750000000000002
Na5Ca3TiP3(SO8)3,mp-2714864,1.5557999999999998
Tl2Hg2PdCl8,mp-569675,1.7216000000000002
RbLaMg30O32,mp-1039978,1.9794
Na2Cr4O13,mp-780676,1.5581
KLaHfSnO6,mp-1519213,1.9904
LiV2F7,mp-755889,1.8391
Ca(ErS2)2,mp-1194059,1.5692000000000004
Na3W3Cl13,mp-583762,1.6475
KLaYBiO6,mp-1519740,1.9899
SrCaTbBiO6,mp-1520398,1.7765
CsGaSe3,mp-510283,1.6041
Na4CO4,mp-545541,1.5571
TiCrSbO6,mp-1216859,1.6451000000000002
Tb3CuSnS7,mp-554781,1.5553
Rb2S5,mp-16911,1.9539
Sr2V3O9,mp-675355,1.7808000000000002
Ca2BiWO6,mp-1375332,1.8101000000000005
Nb2NiO6,mp-1173492,1.5589999999999995
Mg(FeO2)2,mp-34493,1.5154000000000003
CsGdS2,mp-9084,1.8329
Rb2MnSO4F3,mp-19488,1.7343000000000002
MnOF,mp-1273655,1.5812
GaN2OF5,mp-1197441,1.8303
Rb3NpH4O7,mp-1200179,1.5111
BiXeF9,mp-555132,1.9598
B2(CN2)3,mp-1096872,1.8805
MgZn2(FeO2)4,mp-2232936,1.6366999999999998
LiFeB2O5,mp-776600,1.6521
Na2LiBiI6,mp-1111803,1.9141
Na6Mg3Si2Sn(SO6)4,mp-2712579,1.8509
Ag6Mo10O33,mp-504579,1.771
MgV4O7F5,mp-2229321,1.5239999999999998
SrLiVPO6,mp-759976,1.7166999999999994
NaHf2Ti2P5SO24,mp-2716231,1.9868
Na8Mg3Sn(PO4)6,mp-2715027,1.7843999999999998
MgMo2(PO5)2,mp-2228679,1.8205
Zr4Ti(PbO3)5,mp-1350831,1.9216000000000009
Mg2NiPt,mp-1093934,1.5702
CaH12(IO7)2,mp-698021,1.9185
Ca2Ga2Bi(B2O7)2,mp-695449,1.6425999999999998
Li4MnCr3(PO4)4,mp-768041,1.9098
Hg3(SF)2,mp-7580,1.8372
BaTiO3,mp-2998,1.6662999999999997
TaAgO3,mp-1187189,1.7306000000000004
K3P11,mp-1568,1.93
K2Sn3O7,mp-1024073,1.5671000000000004
LiSnAsCO7,mp-771890,1.9866
Na2DyCuCl6,mp-1111132,1.6541
SbCNCl5,mp-568590,1.9435
Zn2IN,mp-1188466,1.6378
Cd(AuF4)2,mp-29169,1.7789
CsLiMg30O31,mp-1040267,1.8437
MgTiV4FeO12,mp-2231747,1.5899
TiOF2,mp-37473,1.8523
RbLiZn2O3,mp-18422,1.8536
P2H19C6I7N,mp-1196394,1.5585
AgMo4H22C8(NO5)3,mp-603946,1.9177
PCl5,mp-569410,1.7516
BaCaLaBiO6,mp-1519241,1.9504
K2Ge2Se5,mp-29388,1.8029
Sr(ClO)2,mp-1209094,1.7196
Na2CrH2F8,mp-973225,1.589
SbI(ClF3)2,mp-560789,1.8658
Ba4(PtO3)3,mp-757840,1.5953000000000004
Cr3(FeO6)2,mp-776667,1.8236
TiO2,mp-1101022,1.9968
Li3Mn(PO4)2,mp-753513,1.6431000000000002
Ca2MnO3,mp-1227324,1.7783000000000002
Li3VCr3O8,mp-764983,1.5066000000000002
MgFe6Sb10(IO3)6,mp-1233566,1.5514000000000006
In2Ge2O7,mp-5280,1.7955
LiCrP3H8O13,mp-780662,1.8044
TeI4,mp-567269,1.8286
V(PO3)4,mp-32509,1.7651
CrAg(SO4)2,mp-1213773,1.9491
AgI,mp-1182980,1.8797
Li2FeBO4,mp-770663,1.9172
GaP2I9,mp-29817,1.7111999999999998
SnH12Pt(N2Cl3)2,mp-707441,1.834
MgFe2W2(ClO4)2,mp-2228701,1.5486
RbFe(SeO4)2,mp-22038,1.8633
Li3VOF4,mp-780660,1.5642
FeAg(SO4)2,mp-1212721,1.6382999999999996
H8PtN2(ClO)2,mp-23858,1.7313
LiAgF2,mp-752882,1.5272
Rb2SbAuS4,mp-556894,1.5357999999999998
Au2S,mp-947,1.9091
CrAgO2,mp-19378,1.6634000000000009
RbMg30BiO32,mp-1039612,1.8777
Pm2MgS4,mp-1232294,1.5195999999999998
CaPbI6,mp-771814,1.8246
LiCrPO4,mp-757270,1.5107
LiV2P5O16,mp-758161,1.8042
Al2O3,mp-1245323,1.705699999999999
Li2VF5,mp-777901,1.8007
Ba2La2Mn(WO6)2,mp-560825,1.5055000000000005
Sr2V3O9,mp-1218556,1.7738
Si3N4,mp-1245263,1.9940999999999995
Li2WS4,mp-753195,1.9871
Li2MgMn3O8,mp-581301,1.8867
NbVO5,mp-2236644,1.752
SrMg30SiO32,mp-1039906,1.7525000000000004
K2GeSe3,mp-9692,1.7264
Ca4Bi6O13,mp-1227621,1.7027999999999994
K3GaTe3,mp-541688,1.5112
TeI4,mp-651155,1.7073
K2MgFe4P6(O4F3)4,mp-1234362,1.5774000000000004
NaCa2Ta3O10,mp-1221096,1.8947
NaCaCeBiO6,mp-1516633,1.541
MgCr2(ClO)4,mp-2240585,1.5736
Cs2MnV2(BrO3)2,mp-572800,1.8578
CaU2Si2H12O17,mp-730691,1.9307
Li5V(PO4)3,mp-758424,1.5841
LiVF4,mp-754721,1.7879
PPbSe3,mp-20316,1.6645
K2RuNCl5O,mp-541361,1.7947
Ga2S3,mp-32616,1.8097000000000003
Sr2GdBiO6,mp-1208851,1.5339
AgSbF6,mp-3414,1.7739
AlSeBr3N,mp-567060,1.8781
Sr2MgZrCrO6,mp-2215797,1.5884999999999998
CrH10S2(NO2)4,mp-753135,1.7608
CdGe(BiO3)2,mp-554740,1.9144999999999996
Sr2GeSe4,mp-30293,1.7283000000000002
Na6BeO4,mp-755546,1.9848
CrSb(PO4)2,mp-754479,1.5183999999999995
Rb2LiRhF6,mp-1113707,1.7225
Cs2NaGaBr6,mp-1110642,1.6072
Na14Nb2In6Si9(SO16)3,mp-2714761,1.7987000000000002
KV2Fe(AgO4)2,mp-1103811,1.9738
SrCaYBiO6,mp-1521109,1.8269
Cs3Ag9(SbS3)4,mp-1226259,1.5938999999999997
GdY(FeO3)2,mp-1224655,1.5830999999999995
CdSiN2,mp-1246975,1.6216
Li3ZrNb(TeO6)2,mp-754249,1.8759
LiVFe(P2O7)2,mp-759903,1.637
Ca(HoS2)2,mp-1194276,1.5526999999999995
Na3CoO3,mp-1176349,1.6741
SrAl7Tl5Si5O24,mp-1173192,1.7671
ZnSn(GeO3)2,mp-1044515,1.6763
NaFeO2,mp-21060,1.6406
HBr,mp-2352325,1.5517999999999996
AgSb3PbS6,mp-1229272,1.5029
FeH12C4(S2O3)2,mp-1193145,1.8802
Y2MgS4,mp-1232031,1.9492
Zn3Fe8CoO16,mp-1215745,1.6054999999999997
K2LiTlCl6,mp-1111660,1.5798
Gd4GaSbS9,mp-1199284,1.5180000000000002
Li2Co(CO3)2,mp-753286,1.7435
La2SnS3O2,mp-560740,1.6742
Sr2MnWO6,mp-19315,1.8986
Na7Ti2Zn2SiP5O24,mp-2715630,1.6576
KNb5Pb2O15,mp-1223583,1.9075
Li4TiFe3Sn2(PO4)6,mp-1177317,1.5116999999999998
Bi,mp-1182248,1.5046
BaCaBiSbO6,mp-1522525,1.9940999999999995
Si(PbS2)2,mp-504564,1.9690000000000003
Na2UO4,mp-554191,1.8660000000000003
BaSrDyWO6,mp-1522331,1.8686
Ca2Sb2O7,mp-16280,1.7433999999999998
VClO,mp-23061,1.674
V2SiO4,mp-772047,1.5873
Li5Fe8(BO3)8,mp-761278,1.6572000000000002
KLa5(CCl5)2,mp-571240,1.7157999999999998
Nb9PO25,mp-758233,1.8609
KNa2NiO2,mp-558824,1.5423999999999998
K2Sm2Mg(MoO4)4,mp-1233342,1.6087000000000002
PWO5,mp-29366,1.8574
Ba2BiSbO6,mp-23127,1.9752
CsCoH18N6(ClO2)4,mp-735563,1.6797
YSeO3,mp-769404,1.8121
Na14Nb2Ga6Si9(SO16)3,mp-2714750,1.9247
LiVOF3,mp-757620,1.5907
Li2FeP2HO8,mp-766101,1.9142
Na10Ti4Ga4Si7S5O48,mp-2715831,1.7659999999999998
VF3,mp-1178903,1.6883
Li2VNiO4,mp-1282947,1.5773999999999997
ScF3,mp-634805,1.763
ZnFeAsO5,mp-1047105,1.8683
K3UH5C5O12,mp-1212323,1.6993
Na6Mg7Ti(SO4)12,mp-2714978,1.9357
NaMgSnP(SO6)2,mp-2714330,1.9651
Ag2Mo(I2O7)2,mp-1203404,1.9611
V(PO3)3,mp-705305,1.9533
Fe2TeO5,mp-560112,1.6448999999999998
Cs4PbO3,mp-1199752,1.6856
Li5VO3F2,mp-752747,1.5920999999999998
TlCr4BiO14,mp-616232,1.782
Zr3TePb4O13,mp-1215669,1.8126
Zn(Bi25O38)2,mp-686183,1.9832
NaMg14FeO16,mp-1035481,1.9667000000000003
Fe3Te3ClO10,mp-1200464,1.9996
Li2V(SiO3)2,mp-863421,1.6437
NaNb13O33,mp-672212,1.6963
VO2F,mp-756042,1.9711
Li2V2SiGeO10,mp-756174,1.7448
Ba4InAgS6,mp-1195568,1.6864
KCaCeBiO6,mp-1518152,1.7974
CsK2RuF6,mp-1112313,1.66
BaLa2Ti3O10,mp-1200651,1.9924
SrLiTi4CrO11,mp-1218301,1.863
Na2Gd2Ti3O10,mp-20763,1.7123999999999997
Li7VO5F,mp-764775,1.7652
CS3N4,mp-28390,1.9381
Na2Sc4Ta4Si5S7O48,mp-2716160,1.7187
Hf2N2O,mp-760052,1.7746000000000004
La2GaCoO6,mp-1223269,1.7713
HgI3N,mp-1224643,1.6452
Na2InGaF6,mp-1111022,1.8619
Ba(NdSe2)2,mp-36007,1.5999
CoH15Pd(NCl)5,mp-1204542,1.6232
Li4Ti2V3(Fe2O9)2,mp-768180,1.5642
CrPO4,mp-764345,1.8272000000000004
Li2VO2F,mp-780295,1.5210000000000004
CN2,mp-1214163,1.7519999999999998
Li5Fe3(BO3)4,mp-766507,1.6586999999999998
LiVP2O7,mp-26251,1.8886
Li5FeO3F,mp-761250,1.9363
Zn3PBr3,mp-1215629,1.6198
Ce2Dy2O7,mp-755380,1.8007
Sr6Mg(Te4O11)2,mp-1233312,1.6752000000000002
Li6Fe3Co(PO4)6,mp-757363,1.7217999999999998
Li3Mo4P9O32,mp-705341,1.5540999999999998
Na2La2Nb6Si7S5O48,mp-2715785,1.9534
Na14Zn2Si9Ge6(SO16)3,mp-2714860,1.8094
NdFeC6(N3O2)2,mp-818675,1.6396999999999995
Ho6MgWO12,mp-2229997,1.8859000000000004
Na3InSiGe(PO6)2,mp-2715340,1.9768
ZnWO3,mp-1340971,1.8923
Na4YSi2GePO12,mp-2715522,1.6092000000000002
Mn(HO)2,mp-625656,1.734
Li5VO4F,mp-759609,1.5457
K2InAgF6,mp-1112283,1.6678000000000002
Sr3InRhO6,mp-669389,1.5007
NaGa5O8,mp-753022,1.5017999999999998
V(SiO3)2,mp-753907,1.8443
NaSr2NdTi4O12,mp-1220894,1.9187000000000003
BaCaNiF7,mp-1047971,1.9832
SrTcN3,mp-989627,1.5709000000000002
BaMg30SiO32,mp-1039822,1.620900000000001
Cs6Br4O,mp-1178399,1.8138
Rb8U9O31,mp-683981,1.601
Ho2MgMo2(ClO4)2,mp-2242231,1.7487
CaMg2N2,mp-5795,1.9969
K6ZnSe4,mp-1147626,1.6945
Hg3H4S2O11,mp-721053,1.7372999999999998
K2SmNb5O15,mp-1211765,1.8639
TaAuN2,mp-1246762,1.5015999999999998
Fe4O3F5,mp-773741,1.615
KCr2FeO8,mp-558367,1.5071
LiVO3,mp-754098,1.8029
V(SiO3)2,mp-1265975,1.5244
LiHoS2,mp-15790,1.9863000000000004
SiC,mp-568735,1.9979999999999996
CaO,mp-1245200,1.9733
MgV2(OF3)2,mp-2217713,1.5187
MgCo2(MoO4)2,mp-2220006,1.7036000000000002
Ba2Ti5(Bi2O9)2,mp-1229191,1.8213
KCr2AgO7,mp-559172,1.6229
Sr2LaBiO6,mp-1518256,1.9455
V4(OF3)3,mp-1101222,1.641
Cs2H4RuNCl5O3,mp-707803,1.8073
Bi2XeF12,mp-1204919,1.7791999999999994
H48PtC32S4(N3O4)2,mp-1202135,1.6557
Na2LiLa3Ti6O18,mp-676447,1.8129
K3Ta2Cu3Se8,mp-1200105,1.987
Cs11Tl6Cl29,mp-1197143,1.6653
ZnS,mp-555666,1.8581
Li3Ni4SbO8,mp-754956,1.6910999999999996
SrV2(P2O7)2,mp-505345,1.7714999999999996
Na8MgSi5Sn3SO24,mp-2716197,1.5768999999999995
Li3VAs2O9,mp-1177474,1.7624
Li2AlCoO4,mp-770550,1.6962000000000002
Li8Co(O2F)2,mp-760331,1.9403
Er10Ti6O27,mp-37727,1.6594000000000002
K2LiRhF6,mp-1111665,1.7665
Cd(AuF6)2,mp-557715,1.8309
Ca2NbN3,mp-1029832,1.7961
Li3Al2FeO6,mp-770589,1.8726
Rb2InBiCl6,mp-1114071,1.6915999999999998
Rb8Mg(FeO4)2,mp-2230608,1.7648
Zn(AuF4)2,mp-17512,1.7174
Al2Sb5(Se2Br3)3,mp-1196459,1.81
Mo(PO4)2,mp-25868,1.7202
LiNi5O5F,mp-753465,1.7847999999999995
Ba2SrMgWO6,mp-2240534,1.7839999999999998
NaSr8NdTi10O30,mp-695470,1.7506999999999997
Pr5C2Cl9,mp-567555,1.6350000000000002
MgMnO2,mp-1003856,1.7128999999999994
FeNi2BO5,mp-21522,1.6665
Mg2BiWO6,mp-1343439,1.9293
LiVP2O7,mp-705056,1.9593
In7Br9,mp-28988,1.5468
Dy2Ti2O7,mp-676874,1.8367
Li3Fe2(SiO4)2,mp-1308156,1.6962000000000002
FeO,mp-1283030,1.7989000000000002
KSrNb2O6F,mp-579086,1.7845
SrMo3(PO7)2,mp-505189,1.6176000000000004
CeTh3O8,mp-753823,1.7800000000000002
Li4V3OF11,mp-765238,1.8126
V2(OF)3,mp-754270,1.6682
P8W3O29,mp-776468,1.9246
La6Mg(SiS7)2,mp-1223141,1.9699
Mg3Mo2O7,mp-1368730,1.8353
RbCu2I3,mp-1103650,1.9946
RbMgCu2H3(SO5)2,mp-1233215,1.7792
V2Cd4(TeO5)3,mp-559685,1.7825999999999995
Na2Ta2In6Si3(S3O16)3,mp-2716315,1.6113
CsTbCdTe3,mp-12495,1.5409000000000002
NaFe3H6(SO7)2,mp-604429,1.882
Se2S(NCl)2,mp-559231,1.6977
NaY2Ge2P3(SO8)3,mp-2716284,1.6763
Cs2NaSbI6,mp-1112140,1.8895
CdS2(NO7)2,mp-1201297,1.8397
LiMnBO3,mp-768474,1.9349
La2C(NO)2,mp-1223241,1.9623000000000008
Rb4CO4,mp-550314,1.739
AlPO4,mp-685291,1.5065999999999995
Rb3Sb2Br9,mp-28222,1.9051
MgSc4(FeO3)4,mp-2220515,1.5710999999999995
Mg3Mn3(AsO4)4,mp-1047769,1.8856
Dy2NbGaO7,mp-1225329,1.8805
ZnNiP2WO9,mp-1329345,1.6025
Rb2Te,mp-1397,1.7021
K2PbCl6,mp-1211440,1.6065
Zr2N2O,mp-775866,1.7744999999999995
Na6TiZn7(SO4)12,mp-2714971,1.9842
Re2H4O9,mp-625142,1.9464
Na2CoGeO4,mp-545646,1.9531
CsMgCoF6,mp-1225938,1.9747
FeOF,mp-752941,1.7361
La4Cu4Se3SO4,mp-1223088,1.5626000000000009
Na10U8W5O44,mp-559577,1.7426
LiPrS2,mp-1173029,1.9022
CsSi,mp-1370,1.5634
CeTh2O6,mp-752798,1.8351
Na7CaSi3Ge3(PO8)3,mp-2715030,1.9717
Na2Ta5In3Si6(SO8)6,mp-2713750,1.9667
Na2MgGeP2SO12,mp-2713620,1.6241
La2MgS4,mp-1232364,1.9643999999999997
Cs2ReF6,mp-1205774,1.8006000000000002
VH15C4S2(NO5)2,mp-1202300,1.9578
Rb2Se,mp-11327,1.7968
K2Pd(NO3)4,mp-556518,1.9068
V4OF11,mp-764606,1.5875
MgMn2Al2O6,mp-2217675,1.6018000000000008
Na2CaZr2Si10HO26,mp-1212565,1.5226
FeBiO3,mp-22949,1.7783000000000009
Li2MnF5,mp-767600,1.8449
SrTi7N10,mp-1247012,1.6312000000000002
BaUTiO6,mp-560110,1.6853000000000002
La2MgSe4,mp-1232040,1.8827000000000005
InGaSnO5,mp-1212081,1.8685
MgVO2F,mp-2225031,1.7093
SrMg6FeO8,mp-1032435,1.6544
BaZnCoF7,mp-1047922,1.6673
SbH6C(NCl2)3,mp-1220561,1.737
La2PbSe4,mp-33406,1.8284
H14RhC6NClO4,mp-561074,1.7483999999999995
Li12Cr3CoP4(CO7)4,mp-1178129,1.5513
Y2GaN3,mp-1245470,1.6739000000000002
Fe2H4NF6,mp-1212793,1.6671
LiV3OF11,mp-1307265,1.8749
Na21Mg4Nb8Si15(PO24)3,mp-2714327,1.9925
Sb2H3C3SCl6O5F3,mp-1219693,1.6573
HgI,mp-22859,1.6426000000000005
VCoH14(O2F)4,mp-1204593,1.9759
Li3Al2VO6,mp-755151,1.7569
Hg3S2BrCl,mp-1212237,1.639
RbCrH8(NO4)2,mp-1209231,1.8527
Rb4PbO4,mp-756746,1.5927000000000002
Ho3CuSiS7,mp-17486,1.8225
Mg30ZnSiO32,mp-1037343,1.9527
Si4Te2H44Pd(C8Cl)2,mp-1200140,1.9208
Li4V3O8,mp-775320,1.723
Na2Nb5Al3Si6(SO8)6,mp-2713785,1.5021
VPO5,mp-1100906,1.9054
CsBSe3,mp-573358,1.7167
Ba4Ga5AgSe12,mp-1228309,1.5706
MgFe3Ni2Sb(PO4)6,mp-1233860,1.6338000000000004
PrCrO3,mp-19353,1.8470000000000004
Sr3Sc2N4,mp-1245487,1.7871000000000006
NaTiFeO4,mp-648745,1.6353
Na3Mg3TiPS5O24,mp-2712522,1.9305
SbN,mp-1271276,1.5567000000000002
MnH2(SeO4)2,mp-731052,1.8575
KGdS2,mp-15784,1.8308
MnSiO3,mp-1181218,1.9295
Li2VP4(H4O5)4,mp-758903,1.8897
SmTlO2,mp-755128,1.5337
LiFeOF,mp-1272771,1.7099000000000002
Y2Cr3O12,mp-1361477,1.8489
Li3Co2OF5,mp-849429,1.5356
Bi2MoO6,mp-23064,1.8751999999999995
K2FeNi(CN)6,mp-14083,1.5027
LiFe2C2O7,mp-757949,1.5355
BaCaDyBiO6,mp-1520670,1.7884000000000002
Bi4Te2Br2O9,mp-1106129,1.8311
AsXe2F9,mp-1182721,1.5961
LiMnF4,mp-754618,1.8157
Er2Mo3H2Se2O17,mp-1203166,1.6125000000000005
Li2PtO3,mp-531826,1.734
BaNaH3Pd,mp-862693,1.5042000000000002
Na6Nb2Zn4Si3(SO6)6,mp-2713655,1.956
Cs4Sr(SnSe3)3,mp-1181839,1.6162
Zr2N2O,mp-775824,1.6551
Li3SbS3,mp-768199,1.9811
LiV3OF11,mp-850394,1.7972
H6Os5Pt2(CO)17,mp-720469,1.7221000000000002
SmCu(MoO4)2,mp-554075,1.8293
Ba2NaReO6,mp-6798,1.8688
TeWO6,mp-757056,1.6481
NaTiFeO4,mp-1220922,1.8618000000000008
NaMgTaSi(SO6)2,mp-2712720,1.5074
Li2FeO2F,mp-780532,1.9398
KH2I3O,mp-696649,1.9079
Na5Y3Si3Sn(SO8)3,mp-2716447,1.9477
CsNaMg6O7,mp-1030787,1.6193
PbF4,mp-341,1.9022
Li3VSiCO7,mp-768601,1.7442000000000002
DyMgCu(WO4)2,mp-2227830,1.7325
Ca2SnS4,mp-1100347,1.8182
LuMoBrO4,mp-1194285,1.9634
SrLiNb2O6F,mp-753719,1.7698999999999998
Li4Re6S11,mp-679944,1.5798
MgGe2(WO4)2,mp-2218480,1.7935
Sr2YBiO6,mp-1522480,1.9723999999999997
Na2Sc3Nb5(PO4)12,mp-2713761,1.9182
LiNb(TeO4)3,mp-758389,1.6715999999999998
Rb2MgO2,mp-778256,1.6497
VO2F,mp-752776,1.7622999999999998
Li2MnBr4,mp-36125,1.62
CaGa4(WO6)2,mp-1233056,1.9593
LiVF4,mp-754755,1.7851
Li2Cr4O13,mp-772323,1.5055
Sr3Ti2O7,mp-3349,1.8405
K3CrO8,mp-18876,1.8189
LiPWO5,mp-757577,1.9652000000000005
AgNO3,mp-8196,1.7204
RbTiCu3Se4,mp-1179697,1.5854
YNb3Si3(SO8)3,mp-2713971,1.6
Mg2Si2O5,mp-1185778,1.6533999999999995
Rb4Au6S5,mp-29090,1.698
Pb4SeBr6,mp-630927,1.9784
LiFe2O2F3,mp-1176729,1.8645
Li5Fe3(OF5)2,mp-1177125,1.7943000000000002
VPO5,mp-1372210,1.7515
MgNiMoP2O9,mp-1043146,1.6919
TeI4,mp-567914,1.769
KLaTbBiO6,mp-1520860,1.7048
Ba4Ti3O10,mp-1178581,1.8652999999999995
LiFeO2,mp-755709,1.6166999999999998
Sr14La6Mg3Ti17O60,mp-686467,1.8643
Rb2NbCuS4,mp-15221,1.9749
Na3FeBPO7,mp-756274,1.8914
Fe3OF5,mp-779987,1.5144
Ba2UHgO6,mp-1205945,1.6345
RbUC3O8,mp-1203924,1.9272
LiVP2O7,mp-758360,1.9694
Sr3Sc2N4,mp-1246980,1.7146999999999997
Li2VGa3O8,mp-755571,1.9553
V3(PO4)2,mp-771054,1.8621
LaNb3O9,mp-1373566,1.6369000000000002
LiVFeP2(O4F)2,mp-777388,1.7351
Mg2V3O8,mp-1661936,1.8265
Li2ZrFe(PO4)3,mp-706279,1.8317
Na21Mg8Nb4Si3(P5O24)3,mp-2715629,1.5420000000000005
Cr2Hg2H2O9,mp-733763,1.8064
Mn2Fe(CO)14,mp-1202382,1.6566999999999998
PtO2,mp-617,1.6099
Ag3SbS3,mp-1104271,1.8371
Mn(CN)2,mp-1245492,1.5421
Na2Nb3AlSi4(SO12)2,mp-2715538,1.8252
S2N,mp-2565,1.6968
Ba2MgFeWO6,mp-2223113,1.786
B2S3,mp-572670,1.5315
MgV2O4,mp-1333917,1.5785999999999998
KCaNi2H3(SeO5)2,mp-1233148,1.7653
Na2Hf4Si5Sn4S7O48,mp-2716199,1.7199
Na6Ti8Si7S5O48,mp-2712866,1.5145
Mg(MoO2)2,mp-1392899,1.9303
V3SiP5O19,mp-560988,1.9799
Na3Ga3(TeO6)2,mp-556143,1.8466
RbFeO2,mp-755536,1.8335000000000004
H6PdC2(SO3)2,mp-1197675,1.5616
Ba(BSe3)2,mp-570823,1.7096
Hf2N2O,mp-780231,1.9967000000000008
Ba2TbWO6,mp-1516606,1.7819000000000005
K2Ge2Se5,mp-569826,1.7999
RbI3,mp-28328,1.8745
Mg2TaWO6,mp-1372745,1.7163999999999993
Ba2SmVO6,mp-1517570,1.6332
Sr5ZrTi4O15,mp-1218504,1.9033
Zn3Si4(SbO7)2,mp-1254678,1.7516999999999996
Sr2Ti6N2O11,mp-755078,1.758
LiV2OF5,mp-849639,1.6473999999999998
Na2LaTi(PO4)3,mp-2713605,1.9744
Cs7NaSi8,mp-1199908,1.5773
Ba2MgMn2(P2O7)2,mp-1233482,1.9981
NaVPCO7,mp-768103,1.628
Cd(NO4)2,mp-1182373,1.8697
Hf2Ta2Si3(SO8)3,mp-2713757,1.5736
AgAs(SeF2)3,mp-1191037,1.6736
Mg3MoN4,mp-1245509,1.7161
MnBr2,mp-571084,1.5334
ScNb3Si3(SO8)3,mp-2713929,1.6888
LiFe2OF5,mp-850961,1.7469
Na2Ti6Zn2Si3(S3O16)3,mp-2716558,1.5624000000000002
Na5Ti2Zn2P5SO24,mp-2714975,1.7222
RbInCl3,mp-1114001,1.6772999999999998
ZnS,mp-608468,1.9701
MgMnF5,mp-1337197,1.7675999999999998
Li6Fe3Sn(PO4)6,mp-778734,1.6764
In9Ga3(BiS6)4,mp-1224634,1.7826
VPO4,mp-26110,1.6418999999999997
KAlTe2,mp-18347,1.9596000000000005
LiVCO3F2,mp-766478,1.7854
MgV2O6,mp-1045734,1.722
CdC3NO6,mp-1197974,1.6183
Na5IO6,mp-1210180,1.9079
Ba(AlTe2)2,mp-38394,1.5046999999999997
Li2Bi2(SO4)3,mp-777356,1.8644000000000005
Cs2AgBiCl6,mp-1078258,1.8663
CdBiS2Cl,mp-558849,1.9160000000000004
NdNb3O9,mp-1173534,1.5177000000000005
K4ZnO3,mp-28382,1.6946
Na3MgVH6O7,mp-2228859,1.5959
TlInS2,mp-865274,1.8022
CsBiS2,mp-541378,1.5773
Na7Zn2SiSn2P5O24,mp-2715660,1.9837
Cs2Se,mp-1080271,1.6603
Li3CrF6,mp-754188,1.8349
Na4Sn(GeS3)2,mp-1221151,1.8873