pretty_formula,material_id,band_gap
Na2YNb3Si4(SO12)2,mp-2715697,1.8105
Y2MgSe4,mp-1232187,1.8931
Sr(AsS2)2,mp-36577,1.7211999999999998
KAgTeS3,mp-1211732,1.6838000000000002
LaZnFeMoO6,mp-1044082,1.7031999999999998
TiNiO3,mp-698587,1.7081999999999995
TlGaS2,mp-4016,1.7885
LiFe2(BO3)2,mp-759397,1.5637
Hg2P2S7,mp-27171,1.8095
Fe3P2(HO5)2,mp-1199228,1.7308
Sr5(TiN3)2,mp-1247347,1.8024
Sr2PrBiO6,mp-1516990,1.7451000000000003
MgTi(WO4)2,mp-2218111,1.6719
Li2VPO5,mp-757041,1.5391999999999997
Na5La2Nb2Si3(PO8)3,mp-2714066,1.8738
FeHO2,mp-510670,1.8729
Sr4SnPbO8,mp-1208734,1.8593
AlP2I9,mp-28046,1.6553
V2NiO6,mp-756345,1.7571
DyCuS2,mp-554120,1.6324
K2ScInI6,mp-1112016,1.9864
NiF3,mp-1180654,1.7607000000000002
Li2VF6,mp-861590,1.9566
Rb5Re3S7,mp-676329,1.6469999999999998
K4CO4,mp-545630,1.9637
MgFe3(PO4)3,mp-2231540,1.8437
MgV6(HO3)6,mp-1234793,1.6166
As4S11(N6Cl7)2,mp-706455,1.6464
RbCuC2,mp-5841,1.8861
NaLa2Sn2P3(SO8)3,mp-2716337,1.6183999999999998
Ba3LaMgIn(WO6)2,mp-2230108,1.843
LiHoSe2,mp-33322,1.5785
Rb4Hf3S14,mp-542012,1.6823
UTe(PbO4)2,mp-1191464,1.745
GaSe3N2Cl5,mp-569902,1.7959
Mo(PO3)4,mp-705035,1.8481
CuP4S3Br,mp-1196166,1.9335
Cs6Ho21S34Cl,mp-1199243,1.9586
NaCaGe3P3(SO8)3,mp-2716507,1.8926
Zn2Sb2O5,mp-1046782,1.7828999999999997
LiVSiO4,mp-753223,1.5217
Cs6Dy21S34Cl,mp-1197810,1.9469
H4Pd(NO4)2,mp-1193008,1.5880999999999998
MoH12C2(S2N)2,mp-1205118,1.8155
Na3Ti3ZnP5SO24,mp-2715915,1.9142
Mg2C3,mp-28793,1.6533000000000002
SrCa3(PbO4)2,mp-1218448,1.9231000000000005
Li3TiCr3O8,mp-757225,1.9035999999999995
Tb3CuGeS7,mp-557517,1.5788000000000002
Rb4PbO4,mp-779104,1.7171000000000003
Rb2LiVS4,mp-558815,1.5836
LaTiAlPbO6,mp-686726,1.8576000000000008
AuSCl5,mp-28192,1.56
CsPrCdTe3,mp-12494,1.5231000000000003
WSe2,mp-1023936,1.5378
PrHSe,mp-1025029,1.9162000000000003
Li4VO3F2,mp-764753,1.6330000000000002
Ca2AlMoO5,mp-1046989,1.6287000000000005
Rb2CuBr3,mp-569531,1.8371
LiFe2O2F3,mp-755207,1.6633999999999998
Ca2MnFeSi4(HO3)5,mp-1227867,1.7123000000000004
V2OF5,mp-764367,1.5134
NaSr8LaTi10O30,mp-695476,1.8022
K5Ta(TlAs2)2,mp-1211936,1.5206
Ce4ZrO10,mp-1226815,1.9513000000000007
BSe2,mp-1214789,1.7712
BaGa12O19,mp-850536,1.9291
LiCuCO3,mp-760512,1.8724
Nb10Pb14O39,mp-1101724,1.7517999999999998
Sr3(GaN2)2,mp-16945,1.5856000000000003
TaP4(SCl)5,mp-572763,1.9435
CaFe6(OF2)4,mp-1233658,1.6716000000000002
NaHf3NbSi3(SO8)3,mp-2714016,1.6417
KNiSbO4,mp-1223391,1.7597000000000005
MgNi(TeO3)4,mp-2229023,1.5113999999999992
Ca5VN5,mp-1247440,1.7935999999999996
LaN3O13,mp-1182768,1.5341
MgTi(WO4)2,mp-2218124,1.681
AgPb2Br5,mp-621612,1.9341
VF4,mp-1101193,1.8942
LiNbO2,mp-3924,1.5794999999999997
LiFe8(BO3)8,mp-849747,1.7294999999999998
Rb3TbMgV2O8,mp-1233436,1.5552
Fe6OF11,mp-755836,1.8602
Li2TiFeO4,mp-1285010,1.5224999999999995
Si12CO24,mp-1219366,1.6378000000000004
Mg30CrFeO32,mp-1037531,1.6152999999999995
KCBr(NO2)2,mp-558178,1.9626
SiP,mp-2798,1.7395
CoH2SeO4,mp-757297,1.8418
TlGeI3,mp-29288,1.9161
Ba6LiNb2Ir(ClO6)2,mp-1235867,1.5421999999999998
Rb6InP3S14,mp-1204523,1.7382
VPO4F,mp-25440,1.6246000000000005
CoH2SeO5,mp-23967,1.6716
Li2Cr2FeSbO8,mp-1222836,1.891
MgV2In2O8,mp-2218306,1.5140000000000002
V4(OF3)3,mp-759200,1.6881
Li2NbCr3O8,mp-758202,1.5999
Cs3VS4,mp-1200171,1.6566
CaP4(Br3O)4,mp-1234060,1.9045
Li4TiS4,mp-766581,1.5841
Cs2TcF6,mp-1079364,1.8113
CaFe6(OF2)4,mp-1234276,1.6723
UO3,mp-8134,1.6383
K3Na2InO4,mp-553975,1.9065
SiC,mp-624397,1.9959999999999989
Zr11VO24,mp-861249,1.7607000000000004
LiVSiO4,mp-766121,1.7331999999999996
CaNpH7O8,mp-1195107,1.5401
Ta2Zn2SiS5O24,mp-2713051,1.5603000000000002
Ce6Y2O15,mp-758094,1.8196999999999992
Cs2Se,mp-1011696,1.8027
BiF5,mp-1369219,1.8671
MgFeAsO5,mp-1047268,1.8646
Ba2NbCrO6,mp-31627,1.5823999999999998
AlAgS2,mp-7885,1.7077
K3CoO2,mp-28825,1.6284
Cs2Cr4O13,mp-31378,1.7647
Li4Cr3FeO8,mp-768894,1.7827000000000006
PaInO4,mp-1219969,1.7480000000000002
V2Ni(PO5)2,mp-646633,1.5047
Li3VF7,mp-759421,1.9246000000000003
MgTiV2CrO10,mp-2215802,1.5419
AgNO3,mp-552185,1.8539
P2SN6,mp-1210609,1.7924
NaGeN,mp-1246750,1.5042999999999995
H6N4O9,mp-1181328,1.6163
LiBiB2O5,mp-768665,1.6436
Ba2TbWO6,mp-1214561,1.6795
Rb2YCuI6,mp-1110761,1.8014
LiMg14FeO16,mp-1035435,1.9419000000000004
LiVSiO4,mp-757123,1.9155
Na3CrAsCO7,mp-771038,1.5635000000000003
Rb3InO3,mp-849527,1.7359
BaNb3NO7,mp-755621,1.5397999999999998
MgSb3XeF23,mp-1195096,1.6103
Na3Sr14Nd3Ti20O60,mp-695175,1.8446
K2GeSe4,mp-29022,1.7867
ScF3,mp-695817,1.8038
AsS,mp-542810,1.9674000000000005
Li3Fe5OF11,mp-1342745,1.7568
BC2N,mp-1008523,1.5215999999999994
SrLaMgMn2O6,mp-2217867,1.8241999999999996
Re3(SeCl)7,mp-679999,1.5043
Li3CoBO4,mp-768705,1.7308000000000003
CsNd2Ti2NbO10,mp-1228954,1.5761999999999996
Ti2Sn3O10,mp-757375,1.7265999999999997
LiV2NiO6,mp-1565491,1.5283000000000002
Ba2Ti6N2O11,mp-755526,1.7616
MgAg4Te8(MoO12)2,mp-1233997,1.8913
Ti2FeO5,mp-1101126,1.6511999999999998
SbXe2F9,mp-29904,1.7960000000000005
As2O5,mp-555434,1.6284999999999998
Ca2AlFeO5,mp-1227552,1.7716999999999996
SrCaYVO6,mp-1520379,1.6094000000000004
Cs15W7N19,mp-1087549,1.5345
Ba2NbN3,mp-17024,1.9548
MgV2(PO5)2,mp-2232138,1.9099
K4Sn(TeSe)2,mp-569427,1.5606
Mg30BCO32,mp-1038482,1.8056
Li5BiS4,mp-766390,1.8897
Pr2MgMn2(GeO5)2,mp-2229141,1.8494
As2H5CO6,mp-1229009,1.659
Cs2RbTlBr6,mp-1112116,1.5133
NaSr6H17Pd2O17,mp-1221694,1.5143999999999995
Ca2TeWO6,mp-1047738,1.5348999999999997
Rb2TeI6,mp-28070,1.6225
YSeF,mp-556111,1.5788000000000002
Na6Ta20Zn4Si21(S5O48)3,mp-2715737,1.935
SiC,mp-1204356,1.8389000000000009
Y2Mo2O7,mp-2674749,1.6482
CsNbN2,mp-8978,1.5227999999999997
Li5CoO4,mp-779022,1.5192
Ti2P2O9,mp-1044823,1.9456
LiFe2(BO3)2,mp-761207,1.56
MoO3,mp-20589,1.9487
NaVCSO7,mp-772183,1.7907000000000002
MnBr2,mp-28306,1.5962
VAgO3,mp-559736,1.6283
LiCr3O8,mp-772513,1.6692
RbV2CrO7,mp-557660,1.8638
Li3Fe8(BO3)8,mp-764874,1.566
S5N4O3,mp-540558,1.7253
MgV2(FeO2)4,mp-2233255,1.7394000000000005
Ba3NaSr(SbO4)3,mp-1228279,1.5696999999999997
KUClO3,mp-1095429,1.7582999999999998
AgCO2,mp-1182953,1.976
MgMoP2O7,mp-2217940,1.8573000000000004
BaSrTbBiO6,mp-1518219,1.8169
INO3,mp-754661,1.6497000000000002
Ho2MgMo2(ClO4)2,mp-2228760,1.7033
MgFe4O5F3,mp-2219662,1.6722
Li8MnO5F,mp-753625,1.7231
Tm10Ti6O27,mp-675759,1.7303999999999995
MgFe2(SO5)2,mp-2228654,1.6617000000000002
KY(PSe3)2,mp-571057,1.8811
Li3V3(PO4)4,mp-757811,1.8507
Li2Co2C2O7,mp-757756,1.7858
TlCr2FeO8,mp-1208083,1.8589
USO6,mp-17637,1.9501
TbCu(MoO4)2,mp-14948,1.9354
Ba2NdMgBiO6,mp-2240208,1.6575000000000002
Ba2GdCl7,mp-29084,1.5614999999999997
Ba3CrO5,mp-19197,1.5029000000000003
Sr2Ti6N2O11,mp-755353,1.5979
MgFe4NiO8,mp-1221969,1.5845000000000002
LiFe2C2O7,mp-762511,1.9084
AlAgS2,mp-1096820,1.6349999999999998
SbO2,mp-230,1.8897000000000004
CsVWO6,mp-1225856,1.787
Na3NbZn5(SO4)9,mp-2714092,1.7102999999999997
Hg2W2O7,mp-754961,1.8808
Ba2P7I,mp-1188687,1.7662999999999998
Sn2Sb2Pb4O13,mp-1219056,1.5613
Tl4HgBr6,mp-27293,1.832
Th2S5,mp-1666,1.7512999999999996
Li2VBO4,mp-768177,1.8957
H16RhN5(Cl2O)3,mp-866658,1.6753999999999998
BaGaB4H3O10,mp-1403079,1.9376
MgSn3P2(SO6)4,mp-2712965,1.5154
CaV2O4,mp-1835930,1.5513
V2CrO6,mp-1312918,1.6599000000000002
LaCrO3,mp-19281,1.913800000000001
K9U6BiO24,mp-558206,1.7042000000000002
GaHO2,mp-625628,1.6097999999999997
Ti2Sb2O7,mp-771652,1.8340000000000003
Na6In4Si3(SO8)3,mp-2716126,1.9003
K2SnBr6,mp-707190,1.8996
ScNbSi(SO6)2,mp-2713368,1.9425
MgMn2FeWO6,mp-2217875,1.6818000000000004
MnCl2,mp-28233,1.7925999999999995
Ca2H3Br,mp-1018656,1.5364999999999998
ZrZnN2,mp-1014244,1.99
LiAuF6,mp-1079483,1.8673
Li6VCrP2(CO7)2,mp-756728,1.9883
AlB3H14N,mp-1252808,1.5074999999999998
Ba2TaFeO6,mp-1205671,1.8623
Ce8Nd2O19,mp-675003,1.9251
La4Cu3MoO12,mp-554177,1.7031
Na2SeO5,mp-734025,1.7542000000000002
MnH6(OF)3,mp-743569,1.5910000000000002
K3BSb4O13,mp-558607,1.8698
LiFe2F6,mp-557403,1.7058
MgV2P2(HO5)2,mp-2229286,1.7545000000000002
Lu2MgSe4,mp-1232258,1.9156
Sr3Sc3N5,mp-1245988,1.7723
Na5La2Ti2SiP5O24,mp-2716079,1.9814
Li7Mn2(CoO4)3,mp-1175072,1.6536
VPO5,mp-766127,1.7964
WN18,mp-672264,1.7919
CoBi6(SO8)2,mp-1306933,1.6303
LiZnFeO3,mp-1222343,1.7135999999999996
K3NiO2,mp-1102898,1.5999
CaVFe(P2O7)2,mp-1233846,1.6683
AgH12C4S5N,mp-698405,1.747
Na9NbZn5Si3(SO6)6,mp-2712600,1.7331
SrSnO3,mp-12867,1.5555000000000003
LiSmSe2,mp-35388,1.5106
Na4Ca3TiSiS5O24,mp-2713352,1.6687
Si2AgN3,mp-1246476,1.6338000000000008
K4U5Te2O21,mp-556212,1.769
Mn5V2(HO3)4,mp-1210639,1.7086
Zn2CrWO6,mp-1277741,1.9752
Cd2P4PdO8,mp-1214873,1.7623
LiAu(S2O7)2,mp-1105750,1.9833
Ag3B5O9,mp-1194638,1.8021
MgZn2O3,mp-1221931,1.7077999999999998
Sc7V9O24,mp-863413,1.6977000000000002
MgSe,mp-10760,1.7609
Nd8Sb2S15,mp-1195765,1.8313
NaGeSbO5,mp-6526,1.9847
BaFe2(P2O7)2,mp-1190858,1.7887
Ba2LaBiO6,mp-1520526,1.7696999999999994
LiMnP2O7,mp-31960,1.5180000000000002
GaSi2N3,mp-1246892,1.6923000000000012
Ag3AsS3,mp-555843,1.6989
Li2CrFeO4,mp-754952,1.7254999999999998
Li2CuPO4,mp-26695,1.7827000000000002
Fe7(SiO4)4,mp-1197365,1.926
Li3Fe3(SnO5)2,mp-753126,1.6923000000000004
Li2V2SnO6,mp-754074,1.5564000000000004
Hf2N2O,mp-755314,1.9012
LaMgI5,mp-756448,1.9817
Mg(ScS2)2,mp-1232130,1.5846
As8S9,mp-31070,1.7164
Te(HO2)2,mp-625513,1.7656
HgPS3,mp-27178,1.7549
MgO,mp-1245039,1.9229000000000005
SrZnP2WO8,mp-1046576,1.9574
Na2Nb6Ga2Si7S5O48,mp-2715594,1.9311
KLi3PbO4,mp-559106,1.6930999999999998
FeMoClO4,mp-1272202,1.8735
Li5V2P5O18,mp-26595,1.9323
LiCuCO3,mp-753425,1.7011
K3NbSe4,mp-17283,1.8249
K2NiHgF6,mp-1112157,1.9584
Sr4ZrTi3O12,mp-1218479,1.981
Na3CaSn3P5SO24,mp-2715934,1.7614
Na3GeSe3,mp-18411,1.8881
K6U5V2O23,mp-557365,1.7214000000000005
Li2VFeP2(HO5)2,mp-1177777,1.7599
NaSr3NdTi5O15,mp-703275,1.9141
Li7Fe8(BO3)8,mp-761220,1.5200999999999998
SbP2SN3Cl10,mp-648469,1.8198
Bi2W2O9,mp-1197485,1.9562000000000004
KGe2N3,mp-1029404,1.6518000000000006
K2Mg(CoO2)2,mp-2240424,1.7495
Mn3Nb2ZnO9,mp-557349,1.9058
InSnBr3,mp-998555,1.7904999999999998
MnBiO3,mp-1194603,1.9011
Cr2(Hg2O3)3,mp-558700,1.8298
Mn2NbFe3(PO4)6,mp-775988,1.9175
NaMg30BO31,mp-1039838,1.8663000000000007
NaPS3,mp-1189520,1.988
Li2VCrO4,mp-759380,1.5932999999999995
LiUBO5,mp-556156,1.9059
Li2Cr3SbO8,mp-1178030,1.9744999999999997
NbNO,mp-7596,1.5556
Li2TiNiO4,mp-755096,1.6432999999999995
VFeO4,mp-850978,1.7642
HfMgN2,mp-1029834,1.6720000000000006
ZnAg2(PS3)2,mp-1207470,1.7679999999999998
CdGePH3O7,mp-695422,1.7463999999999995
VZnSiO5,mp-1046716,1.8206
TcAgO4,mp-7206,1.6034000000000002
Zr2N2O,mp-674947,1.6661
Na10Mg6Si3Sn2(S3O16)3,mp-2714896,1.5264000000000002
Mg6ZnFeO8,mp-1032625,1.8576999999999997
Mg30BWO32,mp-1038517,1.885699999999999
Ba2UNiO6,mp-19093,1.6246
Na4Al2Si3Sn2(SO8)3,mp-2713666,1.5372
Gd2MgMo2(ClO4)2,mp-2232458,1.6193000000000002
Ba7Ga5AgSe15,mp-1198460,1.904
Rb8W13O43,mp-706241,1.8216
Na4Mn3BO8,mp-1221176,1.8669
Ba2Sc2O5,mp-863021,1.5335
HgB4O7,mp-12022,1.7969
Pr2S3,mp-32692,1.9475
K6Al11Si13Ag5O48,mp-686585,1.5983
VPO5,mp-25265,1.6452999999999998
Zn2Si5N8,mp-1247426,1.9910999999999996
Na4Zn3GeP2(SO6)4,mp-2713189,1.839
BaGa2GeSe6,mp-1227970,1.9186
AlCuS2,mp-4979,1.6756000000000002
Ag2WO4,mp-637188,1.9382
CsS3,mp-1188913,1.6567
H8PtO6,mp-625208,1.938
H16PdC4S4(N5O3)2,mp-1212583,1.6554000000000002
K3VS4,mp-3529,1.5829999999999995
V2O5,mp-1245162,1.5861
NaLa2Ga2PS5O24,mp-2714193,1.799
MgV4(PbO6)2,mp-2230576,1.5410999999999997
Cs2CrH4F10,mp-1204482,1.9123
LiMo2(PO4)3,mp-540268,1.5276999999999998
FeH16C4S4(N4Cl)2,mp-723036,1.9677
Si2H2O3,mp-627314,1.7578
Na3MgNb5Si6(SO12)3,mp-2715664,1.9244000000000003
MgV3O8,mp-37961,1.6688
GeI4,mp-23266,1.996
Na3BrO,mp-985586,1.8815
La4MgSi4(C2O11)2,mp-1212027,1.6322
KTa(AgSe2)2,mp-571288,1.7478
MgCr2Fe3Ni(PO4)6,mp-1233940,1.5388000000000002
Ga(BiBr)4,mp-571502,1.5866
TiMnH12(OF)6,mp-866804,1.8926
Mg30ZnCrO32,mp-1037573,1.6493000000000002
AlCuO2,mp-3098,1.8148
Y3Fe5O12,mp-4704,1.6633
K2OsNCl5,mp-640057,1.6138000000000003
Y5(SiN3)3,mp-1245467,1.9388
Mg(FeO2)2,mp-1386508,1.7678000000000005
CaSnO2,mp-1046012,1.6462000000000003
Rb3Er7S12,mp-1219776,1.94
K6InTe4Cl,mp-568916,1.9503
Li2PtO2,mp-1177862,1.5326
KLaTbBiO6,mp-1520975,1.9221
CeZrO4,mp-1019596,1.7012
Sm2MgCr2O8,mp-2215872,1.7016999999999998
Li3MnFeCo(PO4)3,mp-759846,1.8256
Na3SiTe3,mp-17291,1.8159
Si2H2O3,mp-627123,1.6023999999999998
LiErS2,mp-35591,1.9887
Ba2Mn2F11,mp-1049304,1.6667
Rb2Sb4O11,mp-558023,1.8332
Ca2AsI,mp-28554,1.5566
Mg(GaS2)2,mp-1246286,1.6447999999999996
CsLiO,mp-1178395,1.6344000000000003
SbCNCl6,mp-570727,1.9675
As4(Pb3S5)3,mp-27594,1.5756
Na10Ga4Si7Ge4S5O48,mp-2715947,1.8099
SbO2,mp-1400172,1.5292
UO3,mp-1198490,1.8782999999999996
SrSnO3,mp-12866,1.6118
Zr2N2O,mp-776314,1.6107
FeH4S2NO8,mp-684724,1.9116
NiPtF6,mp-558838,1.6021
MgV2(CoO4)2,mp-2219669,1.9323
Ba4Mg(SiN3)2,mp-1019517,1.5934999999999997
Cs3TlBr6,mp-1112647,1.6915
KBaCeBiO6,mp-1519349,1.5341
Na8Ca3Sn(PO4)6,mp-2715088,1.5316000000000003
Na3Mg5Nb(SO4)9,mp-2714163,1.5787
SnHg2(SBr)2,mp-643460,1.8541
TlAgI2,mp-27801,1.5659
ZnNiF5,mp-1343278,1.6149
Na10Ta4Zn4Si7S5O48,mp-2714127,1.9401
K6ZnS4,mp-1147618,1.9714
K2Na3InO4,mp-504962,1.92
ScFeO3,mp-771123,1.6430000000000002
NaSrCeBiO6,mp-1519230,1.7302999999999995
Ce8Gd2O19,mp-677234,1.5231999999999992
Fe4H14O13,mp-626855,1.8694
Na3SbSe3,mp-1193265,1.9982
Cd(AsO3)2,mp-7128,1.9349
CoB10H19C11,mp-1195847,1.7185
ICl3,mp-27729,1.7959999999999998
Na4GeSe4,mp-28292,1.7906
P2PdO6,mp-29274,1.6196000000000002
Mg14MnZnO16,mp-1036184,1.7804000000000002
Li4Mn3O8,mp-779008,1.6716
Ba2LiVP2O9,mp-760067,1.8934
Pd(SeCl3)2,mp-28175,1.7002
Y2S3,mp-32891,1.9018999999999997
InRe2(CO)9,mp-1196269,1.9166
Na8Al6Si6O25,mp-1173749,1.8673
SbBrO,mp-989189,1.6021
ZnFePO5,mp-1046713,1.8781
Zn2CrWO6,mp-1282430,1.6192000000000002
MgCrF6,mp-554955,1.6141
TiSnO4,mp-1216649,1.5783000000000005
Ca10Ti8NbFeO30,mp-743819,1.9961
LiTiVO5,mp-756178,1.5071000000000003
KSn2I5,mp-23534,1.5097999999999998
Rb3AgO2,mp-553907,1.5831
LiFe5(OF2)4,mp-1176720,1.6382
Cr(PO3)3,mp-31690,1.949
BaSrYBiO6,mp-1516562,1.7909000000000002
YMgCu(WO4)2,mp-2233909,1.6856999999999998
Na2O,mp-1974948,1.626
Na2FeAsCO7,mp-772415,1.8771
UH10Cl2O15,mp-1198958,1.5111
MgCd2(CoO3)2,mp-2217908,1.5884999999999998
CsNd5Se8,mp-38442,1.6224999999999996
K4Ba(VS4)2,mp-558121,1.5514
Li2Mn2C2O7,mp-760097,1.9123
Na6Ta2In6Si5S7O48,mp-2715864,1.9131
Y3NbSiS5O24,mp-2712943,1.5409
Li3Fe(PO4)2,mp-757629,1.9918
Nd2MgSe4,mp-1232048,1.6854999999999998
Na4TeSe,mp-1221139,1.9291
SbF5,mp-1046542,1.743
HgC8(I2N)2,mp-1204359,1.7803999999999998
Bi2O3,mp-37036,1.6863
SnS2,mp-1002063,1.8648
Na3P11,mp-473,1.8326
Cd(HO)2,mp-2051619,1.7019
H8PtO6,mp-625112,1.5662000000000005
V(GeO3)2,mp-1043235,1.6846
MgMn2V2(BiO5)2,mp-2224271,1.6027
AgN3,mp-571297,1.6314999999999995
KH13CBrNO7,mp-600177,1.783
Nb2Ge2O7,mp-771194,1.5479999999999998
Cs2NaRhF6,mp-1111979,1.9082000000000003
La17Al4(Si3N11)3,mp-866690,1.8771000000000004
Ag4Bi2O5,mp-28996,1.6389000000000005
RbTl(SO4)2,mp-556120,1.989
VP3(HO)6,mp-1201989,1.9864
BaNaCeBiO6,mp-1519525,1.5674
LiVF4,mp-754766,1.8449
V2CdO10,mp-1193246,1.533
AsIrS,mp-1228823,1.8630000000000004
TiZn(BiO3)2,mp-550998,1.5434
MgVNiP2O9,mp-1332813,1.9890000000000003
Mg30CrNiO32,mp-1036879,1.6373999999999995
LiYS2,mp-33363,1.9597
SiC,mp-1200168,1.9411999999999985
MgVFeP2(O4F)2,mp-2224790,1.6196000000000002
Pr4S3N2,mp-558617,1.5093
Sr(TbS2)2,mp-1193989,1.8161
YCu(MoO4)2,mp-559028,1.6797
NdNb3O9,mp-1173575,1.9653
CoB10H23C13,mp-1202054,1.5361
CdHOF,mp-1226809,1.8626
K2Mg(PSe3)2,mp-11643,1.6572
Fe2OF3,mp-758397,1.6847
Ag2Pb8Cl4O7,mp-667327,1.9106
Ag2H6PdS2(NO3)2,mp-1202149,1.8949
VOF2,mp-1273773,1.6474
ZnNiF6,mp-1391273,1.6071
Rb2TlBiBr6,mp-1114114,1.6711
AlSb(WO4)2,mp-1041645,1.5301999999999998
NaScGeP2SO12,mp-2712572,1.7359
Er2MgCr2O8,mp-2218438,1.5186000000000002
Na2UI4O15,mp-1191289,1.9628
Li3Fe8(BO3)8,mp-759585,1.6965
MgFe4O5F3,mp-2219422,1.8707
Na4Ti2Al2Si3(SO8)3,mp-2713582,1.5999
MgTi(GeO3)2,mp-1042857,1.5801999999999996
V3H8(NO4)2,mp-765962,1.9786
H10C3S3N,mp-558354,1.7681000000000002
LiCo2OF3,mp-759688,1.8332
Ga8Sb7Se8Cl29,mp-1203849,1.6847
KSb(PSe3)2,mp-7123,1.8059
LaSO,mp-28626,1.522899999999999
Sn2SI2,mp-23386,1.6146000000000005
Sr2CaV2(Si2O7)2,mp-1233650,1.7363000000000004
LiFe8(BO3)8,mp-761206,1.7294999999999998
AlV(WO4)2,mp-1042105,1.7233999999999998
K3V(PO4)2,mp-557046,1.9769
FeBiC6(N3O2)2,mp-818314,1.604
Li6NiOF6,mp-753281,1.941
Li4V2SiGeO10,mp-772830,1.9746
Pt(C4N3)2,mp-1246801,1.94
Ba2UZnO6,mp-1078725,1.7862999999999998
Ca2PI,mp-23040,1.6997000000000004
Ba2NdGaSe5,mp-1205363,1.6574000000000002
Na4TiZn3P2(SO6)4,mp-2713151,1.7720000000000002
LiFeP2O7,mp-26613,1.9077
Li2Fe5Si5O16,mp-767707,1.8341000000000005
BCl(OF2)2,mp-754459,1.5295999999999998
Ba5Ce4ZrO15,mp-1228741,1.8942
CaTiFe5O8,mp-1233259,1.8936
TlSb3(AsS4)2,mp-558174,1.5340000000000005
TeWO6,mp-1386832,1.6966
Sm6Th4O17,mp-675749,1.9227
MgFe2(SO5)2,mp-2228632,1.6802999999999997
Cd2Te2O7,mp-30940,1.7272999999999996
VPO4F,mp-1104878,1.5351
VZn(Si2O5)2,mp-1043518,1.6839999999999995
CsPrCdSe3,mp-11118,1.9664
Sr2PrBiO6,mp-1516905,1.8002000000000002
P4W3O14,mp-1041213,1.6079
Na2CdSnS4,mp-561075,1.925
Li4Cr3FeO8,mp-768805,1.9687
Co4Ge(CO)13,mp-652229,1.958
Mg30VCrO32,mp-1036803,1.7304999999999993
Cs4ZnO3,mp-1019612,1.6802
Zr(PS3)2,mp-8203,1.5351
RbInSe2,mp-31309,1.6462
Na2UTeO7,mp-1190512,1.8808
AgBiO2,mp-996968,1.6897000000000002
Rb2NbCuSe4,mp-15222,1.6393999999999995
KMgNi2H3(SeO5)2,mp-1233025,1.9805
Hg2Pb(SI)2,mp-557605,1.6317
VAgO3,mp-1178815,1.9488
O2,mp-1009490,1.6288
Li4NbFe(TeO6)2,mp-774933,1.7473999999999998
Zn2AsHO5,mp-721702,1.9675
LiAuC2,mp-29868,1.5321
Li5Mn2CoO8,mp-1174375,1.5785999999999998
Li6Fe5CoO12,mp-763920,1.5568999999999995
Na3Co2SbO6,mp-19087,1.9080000000000004
VAs2Pb2O9,mp-1208082,1.6845
NaNbO3,mp-4419,1.5604000000000002
Sc(NF2)3,mp-1209230,1.9149
SbPbBrO2,mp-1206466,1.8655
LiVPO4F,mp-1247560,1.9749
LiVSi4(HO6)2,mp-1256989,1.9548
LaSnP(SO6)2,mp-2713103,1.7751
NiO2,mp-35925,1.8142
LiVF5,mp-760031,1.9417
VZn2WO6,mp-1275144,1.7396999999999996
Ba2TbBiO6,mp-1520436,1.8106
Na2Fe2F7,mp-1203434,1.6826
UOF4,mp-17004,1.9526
HgS,mp-634,1.7204000000000002
Li7Mn2(CoO4)3,mp-1174502,1.6012999999999995
MgCrAsO5,mp-1340889,1.6090000000000004
Gd2VFeO6,mp-1225231,1.6075
Li3VBPO7,mp-768575,1.9572
Ca2AlSnO5,mp-1251151,1.6406
Mg2NiH4,mp-697331,1.5719
KZnBr3O2,mp-1193013,1.8995
MgSn2WO6,mp-1519158,1.9784
BaV2(PO5)2,mp-19512,1.9897
MgMn(Ni3O4)2,mp-2233064,1.5885999999999996
LaMg30BO32,mp-1039913,1.9868000000000008
K2NaTlCl6,mp-1111616,1.9894
Li5Cu(PO4)2,mp-773438,1.6448999999999998
Cr4AgBiO14,mp-23565,1.7973
CaYCu3Se4,mp-1181927,1.6731000000000005
LiFe2(BO3)2,mp-759537,1.6146
SnP2O7,mp-1041027,1.8744
SbICl8,mp-569512,1.5838
BaNaNdSeO6,mp-1520207,1.8961
KBaAsSe3,mp-1191826,1.6299
YCuPbS3,mp-865203,1.594799999999999
Zr2N2O,mp-776363,1.553
BaMg2H8Ru,mp-643451,1.9107
LiVSiO4,mp-766099,1.7576
Mo6PbI14,mp-569225,1.8429999999999995
ThNb4O12,mp-1217373,1.6498
KMgAg2SbS4,mp-2222914,1.9403
TiH20C8(NF3)2,mp-1217199,1.8836
SbO2,mp-1179587,1.7723000000000004
NaAgH2(SO2)2,mp-1196131,1.8718
MgFe6(OF)6,mp-2230309,1.6353
Rb2TlSbCl6,mp-1114002,1.9551
TlSn2F5,mp-1216794,1.9531
Li4Cr7(PO4)6,mp-777610,1.7957
Ca10Al6Si13N30,mp-695592,1.8137
Li2Nb2Fe3O10,mp-753897,1.5600999999999998
KFe(SO4)2,mp-20968,1.8851
Ba3Sn2O7,mp-770846,1.6702999999999997
BaTh2S5,mp-1195483,1.7359999999999998
SmVO3,mp-1188225,1.5136000000000005
NaAu(IO3)4,mp-1202202,1.9991
VAg2AsO6,mp-1188566,1.6130999999999998
SeN,mp-542635,1.8778
Se2NO6,mp-1199130,1.6951
Ca(FeO2)2,mp-1048853,1.6461
Fe2C2O7,mp-758768,1.8969
Na42Ca16Ta8Si21(S5O48)3,mp-2715815,1.6985
V2Zn3(Si2O7)2,mp-1262955,1.793
NiH2SeO5,mp-976868,1.8086
LiCePCO7,mp-768198,1.6015
MnHgC4(SN)4,mp-541914,1.658
CCl3,mp-1227457,1.9837
BaYNbSnO6,mp-1520896,1.7801999999999998
BaCaCeGeO6,mp-1518962,1.9787000000000003
Cd3S3O20,mp-1182631,1.8436
BS4N4F3,mp-16813,1.8149
CoPtF6,mp-556492,1.9373
KCrF3,mp-560547,1.968
P(H2I)2,mp-1210218,1.6384
VInO4,mp-1102003,1.7734
GePb3O5,mp-562283,1.6319
K3Sm(AsS4)2,mp-560964,1.6795000000000002
CrH12(ClO2)3,mp-734815,1.7364
Li4Fe2P4H3O16,mp-1177422,1.5845
Na2YCuBr6,mp-1111744,1.6711999999999998
LiMnOF2,mp-753743,1.8143
Ca3(BiN2)2,mp-1246566,1.5093
CaNiO2,mp-1388027,1.5494999999999997
Rb2AgBiBr6,mp-1110811,1.582
PrZrNO2,mp-1219791,1.9717