pretty_formula,material_id,band_gap
MnZn2WO6,mp-1291397,1.9933999999999994
MgO,mp-1245232,1.8876999999999997
Li2B2Se5,mp-30100,1.7046999999999999
Os2Xe(O3F5)2,mp-1205001,1.9285999999999999
PIrS,mp-1220004,1.8653999999999993
AgIO3,mp-849271,1.9765000000000001
Li7Mn(O2F)2,mp-766052,1.6784000000000001
AgMoPO6,mp-14029,1.9427999999999999
Sr2MgCuWO6,mp-2217957,1.9670999999999998
Na3Nb5ZnSi6(SO12)3,mp-2715703,1.8419999999999999
Na3Nb6Bi5O24,mp-1221291,1.8875000000000002
Cs2AlTlI6,mp-1112111,1.5910999999999997
MgFeBO4,mp-1210634,1.8677000000000001
NaFeF3,mp-505066,1.8013000000000001
Li5Cu(PO4)2,mp-26311,1.9666000000000001
Ge3N4,mp-476,1.9150999999999998
MgSn2O5,mp-1042980,1.7777000000000003
MoO3,mp-1445089,1.8186000000000002
Ru(C4N3)2,mp-1245789,1.8182000000000003
GeSe2,mp-10074,1.5188000000000001
Li7Fe4(P2O7)4,mp-1177031,1.5648999999999997
KFe4(SiO4)3,mp-1223588,1.9243999999999999
RbLi2Fe2(BO3)3,mp-770709,1.8834000000000002
CsC3(SeN)3,mp-569889,1.7791000000000001
Li3Fe8(BO3)8,mp-761234,1.6831000000000003
CsMg6BO7,mp-1099225,1.8312999999999997
ZnFePO5,mp-1207884,1.9123999999999999
Li16Fe4SiO16,mp-757339,1.8915999999999997
Li3Fe(BO3)2,mp-770926,1.6448000000000003
C(NO)2,mp-1197051,1.8502999999999998
Li2MoP4O13,mp-1101555,1.8745999999999998
SrMg6ZnO8,mp-1032034,1.8375999999999997
Mg(MoO2)2,mp-1047337,1.8999000000000006
KNaMg30O31,mp-1040283,1.9217999999999993
TlAu(CN)2,mp-569173,1.7415000000000003
ZnH18Ru2Br7N6,mp-707342,1.5730999999999997
Mg30GaBO32,mp-1038428,1.9546000000000001
NaPO4,mp-1202449,1.8212000000000002
LiMn2F5,mp-787037,1.9264999999999999
Na8CaSi5Sn3SO24,mp-2715611,1.6616999999999997
Li2Fe3O4,mp-1222957,1.9364999999999997
Na3Zn3GePS5O24,mp-2713641,1.7570000000000001
ZnC2(Br2N3)2,mp-1194420,1.5294999999999999
P3RhW2O15,mp-1194839,1.5049000000000001
NaMg30MnO32,mp-1038011,1.5133999999999999
Pb5(SI3)2,mp-23066,1.8469000000000002
RbMg6BO8,mp-1033557,1.6865999999999999
Li3Fe2(SiO4)2,mp-778622,1.9231999999999998
Na6Sn2O7,mp-773498,1.8236999999999997
Ca4CN4,mp-5251,1.7906999999999997
KMg30BO31,mp-1040287,1.9818000000000007
K5Nb(CN)8,mp-569711,1.7548000000000001
Na10Zn7Sn7H24(S13O6)2,mp-720670,1.9306999999999999
Cs2RbAlI6,mp-1112133,1.8835000000000002
Na14Ca4Si7Sn4S5O48,mp-2715536,1.5775000000000001
FePO4,mp-776288,1.6668000000000003
Rb2NbCuS4,mp-672161,1.8253000000000001
PWO5,mp-1044162,1.6519000000000001
TaFeO4,mp-1217946,1.8014999999999999
Li2S,mp-723352,1.9206999999999999
LiFe(GeO3)2,mp-22173,1.9505999999999997
Li5Mg11(WO4)12,mp-1177113,1.8045999999999998
C3S7O,mp-1192192,1.9924000000000002
Ag5CF4,mp-29536,1.9267999999999998
Rb2TaCuSe4,mp-11924,1.9548999999999999
Mg3Fe4(WO4)6,mp-1042815,1.6917999999999997
Na6MgO4,mp-755084,1.9733999999999998
Si2H2O3,mp-627334,1.6959999999999997
RbB6(HO)8,mp-1203229,1.8370000000000002
Rb2MgFe4O7,mp-2228564,1.5331000000000001
Li4Mn(SiO3)3,mp-780578,1.8119999999999998
MnO2,mp-25223,1.5210000000000001
Tl2CS3,mp-557251,1.7631000000000001
Li2AgF3,mp-752793,1.9647999999999999
Li4Mn3P4(HO8)2,mp-779055,1.8571999999999997
Na3WN3,mp-16839,1.7693999999999999
Ta6Pb4O19,mp-863066,1.7422999999999997
Na8Mg(FeO4)2,mp-2230529,1.9427999999999999
Rb3InO3,mp-761025,1.7373000000000003
Na12Nb4Zn2(SiO4)9,mp-2716563,1.9959999999999996
Ag2W2O7,mp-32537,1.9614000000000003
MgZn2(FeO2)4,mp-2232624,1.8900000000000001
K2MgFe4P6(O4F3)4,mp-1233950,1.7159999999999997
K4Na2H18Pd(IO10)2,mp-757218,1.6804000000000001
CaSnS3,mp-1100335,1.8766999999999996
Bi2O3,mp-1204405,1.9197000000000006
H2CS3,mp-28399,1.9796999999999998
Ga2BiSe4,mp-571085,1.8901000000000001
TaNb(AgO3)2,mp-1217947,1.7114000000000003
CsLi(H2N)2,mp-642740,1.9969999999999999
ZnSn2(PO5)2,mp-1043492,1.8704999999999994
AlW3O8,mp-1041957,1.9247999999999998
Na2Mn3Cl8,mp-27126,1.9227999999999998
Ca4Bi6O13,mp-757343,1.8461999999999996
Mg16Si8HO32,mp-1248719,1.9036999999999997
KCuS,mp-28270,1.8615000000000002
KPSe6,mp-18625,1.8827999999999998
K2NaNb3O9,mp-1224011,1.9676000000000002
LiFeP2O7,mp-26717,1.9185999999999999
Rb2NaNb6(PO8)3,mp-677731,1.9756999999999998
Li5Fe5(PO4)6,mp-771125,1.6421000000000001
Na4Mg(GeSe3)2,mp-1103730,1.8220999999999998
SrCaPbO4,mp-1218368,1.8975999999999997
Li3Fe(CO3)3,mp-765096,1.8911999999999998
MgFe2(HO2)2,mp-2217234,1.6252999999999997
LiFe(SO4)2,mp-780523,1.9546999999999999
MgFe3(OF)3,mp-2217075,1.8618000000000001
Li2FeBO4,mp-752412,1.9082000000000001
Mg(InS2)2,mp-20493,1.7643999999999997
KNa2BN2,mp-1019888,1.8180999999999998
Cu3MoH24C8S3I3N2O,mp-1204081,1.9705000000000001
CuP4S3I,mp-554724,1.7032000000000003
Li4Fe3(SiO4)3,mp-1177429,1.7632999999999999
MgPb2(WO4)2,mp-2227115,1.9934000000000003
BPb7Br3O7,mp-1201413,1.9254000000000002
Rb4Ta2S11,mp-14577,1.7127000000000001
KCa2Nb3O10,mp-557195,1.9567999999999999
NaMo6Br13,mp-680472,1.9979000000000002
ZnAgPO4,mp-1216213,1.8947000000000003
TaTl(CuS2)2,mp-9815,1.7972000000000001
LiAuF4,mp-554442,1.9808999999999999
Li3Fe2(SiO4)2,mp-760096,1.6844000000000001
FeHO2,mp-755285,1.7408000000000001
Na10Al4Si7Ge4S5O48,mp-2715922,1.9930999999999996
Fe2MoC10(SeO5)2,mp-624052,1.9283000000000001
CaMg30SnO32,mp-1037834,1.8848000000000003
NaNbGa3P3(SO8)3,mp-2716430,1.9950999999999999
Rb2WS4,mp-17048,1.9936000000000003
FeHO2,mp-625220,1.9985999999999997
Cs2Se,mp-1080254,1.8268999999999997
Li3Fe8(BO3)8,mp-764513,1.6683999999999999
Sr2LiReO6,mp-12525,1.5935000000000001
Ca2NF,mp-2646991,1.9758999999999998
Mn4OF6,mp-752976,1.9791999999999998
LiMoO2,mp-690493,1.8222999999999994
WO2,mp-1380432,1.6779999999999997
CaBiIO2,mp-1227238,1.6177000000000001
HW2C9NO10,mp-1224650,1.8538999999999999
Cs2S5,mp-1193140,1.8661999999999999
ZnGeN2,mp-1029779,1.5234999999999999
RbPbBr3,mp-998176,1.7508000000000001
Si2H2O3,mp-627206,1.5458000000000003
Li5AuO4,mp-757242,1.9587999999999997
K2WS4,mp-1211879,1.9435000000000002
Ta2MnO6,mp-760053,1.9696999999999996
Na8ZnSi5Ge3SO24,mp-2715656,1.6480000000000001
K2PdF4,mp-28163,1.8732000000000002
IrCl3,mp-27666,1.8970000000000002
Na14Zn5Ge3(PO4)12,mp-2714119,1.8022999999999998
MgFe6(OF2)4,mp-1233442,1.8316999999999999
Bi2WO6,mp-23329,1.9089999999999998
MgFe4(PO4)4,mp-1234799,1.6015000000000001
WI2,mp-1207889,1.9577999999999998
PdCl2,mp-29487,1.5592000000000001
Mn2Ru(CN)6,mp-569321,1.9347999999999999
K3Li2Nb5O15,mp-1198996,1.6585999999999999
MgZn2AgWO6,mp-2215830,1.8203999999999998
Na4Mg3SiSnS5O24,mp-2713364,1.8447000000000002
Bi(Mo2Cl5)3,mp-679989,1.8923999999999999
MgFe6(O2F)4,mp-2230517,1.8118999999999996
K3Ta2S11,mp-680400,1.5662000000000003
SrIn2O4,mp-540688,1.8079999999999998
RbNaMg30O31,mp-1039970,1.6428000000000003
Sr2MgZn2Sn2(PO4)4,mp-1234960,1.9055999999999997
Ca3PbSe4,mp-1227810,1.9181999999999997
NaSr3BiO6,mp-555812,1.7087999999999999
MgZn2(WO4)2,mp-2218568,1.9969999999999999
Sr8Ga16S31,mp-532267,1.8450000000000002
C(NO)2,mp-1214325,1.5115000000000003
MgFe3PO7,mp-2218150,1.8670999999999998
Ag2H2C2N6O13,mp-1196868,1.8311000000000002
CaWO3,mp-1342410,1.9784000000000006
Cu2H12C4Br3N,mp-1202278,1.7288000000000001
NaB9Se8,mp-640950,1.9422000000000001
MgPH6NO5,mp-1210838,1.9545999999999997
RbAuCl4,mp-569442,1.9363000000000001
CsLiMg30O31,mp-1098505,1.9439000000000002
Tl2SiSe3,mp-14241,1.6827999999999999
Na15W7N19,mp-1030704,1.6348000000000003
Sr(InSe2)2,mp-21733,1.5636999999999999
Mn(HO)2,mp-626701,1.7280999999999997
Na4ZnSiSn(PO6)2,mp-2714367,1.9872999999999998
I3NO9,mp-1194757,1.7108999999999999
SnS,mp-554134,1.6680000000000001
Sr2LiReO6,mp-1080625,1.8423999999999998
Na4Fe2O5,mp-19396,1.8705000000000003
Li4FeOF5,mp-759422,1.5509999999999997
MoH8S2(NO)2,mp-24234,1.9789999999999999
Cs3PSe4,mp-583193,1.8309000000000002
Na2W4O13,mp-32533,1.8084999999999998
Na3MgNbSi(PO6)2,mp-2715491,1.7068999999999999
Fe7(OF3)3,mp-781010,1.8449999999999998
MgGe2WO6,mp-1043326,1.9873999999999998
MgAlCu(WO4)2,mp-2219878,1.5110000000000001
K3Nb3(BO6)2,mp-15248,1.9205999999999999
MgFe3(PO4)3,mp-2230850,1.8432000000000002
CsTaO3,mp-1185552,1.8626999999999998
K2In2P3Se10,mp-1199715,1.5675000000000001
Pb(SN)2,mp-726750,1.7084000000000001
LiB6S4(Cl3O4)2,mp-1196966,1.5093999999999999
Li2CuPO4,mp-762111,1.8063000000000002
H2C3,mp-995217,1.9102000000000001
MgFe4(OF)4,mp-2218351,1.9520000000000002
ZnS,mp-1200836,1.9881000000000002
TaAl(WO4)2,mp-1047653,1.8681999999999999
NbGa(SnO3)2,mp-1518242,1.9470999999999998
LiFe2(PO4)2,mp-757359,1.5209000000000001
Na18Ca4Nb20Si27(SO16)9,mp-2712918,1.6524999999999999
RbB6S2(Cl3O2)2,mp-1201123,1.8159999999999998
K8Li13(FeO4)4,mp-759598,1.7423999999999997
CsFeO2,mp-1080749,1.9760000000000002
Rb4Cu5Cl9,mp-1201389,1.6096000000000001
Mg2FeH6,mp-23804,1.9139999999999997
PI2,mp-29443,1.9266999999999999
Li4Fe3(BO3)4,mp-766514,1.6564999999999999
Na3Mn2BO6,mp-1221286,1.9648999999999999
Sr2FeWO6,mp-19266,1.7683999999999997
LiBi2BO5,mp-768636,1.7318000000000007
ThSnI6,mp-28815,1.9800000000000002
CsI3,mp-22876,1.9163999999999999
Cu3P8(S2Cl)3,mp-559558,1.7878000000000003
Fe2O3,mp-542896,1.5251000000000001
H8C2I3N,mp-568713,1.9774000000000003
Cs2MoO8,mp-1213774,1.9750999999999999
Na4Mg(FeO2)4,mp-2229153,1.5011999999999999
LiFe(PO3)4,mp-758724,1.8853000000000002
K6Sn2Se7,mp-29386,1.6683999999999999
Ca2FeH6,mp-1205964,1.5002999999999997
Mg2Al2Se5,mp-29624,1.9699999999999998
Na3Mg2Nb10Si3(P5O24)3,mp-2715707,1.9349999999999998
Zn2Mo(WO4)2,mp-1215894,1.6421999999999999
LiMo3P3O16,mp-17314,1.6482999999999999
Mo(PO3)4,mp-695772,1.8144999999999998
Ge2MoO6,mp-1043238,1.5225999999999997
Mn4C15S4O15,mp-704101,1.9025999999999998
Mg3(HO3)2,mp-37315,1.9627999999999999
MgZn4(Se2O5)4,mp-1233738,1.8549000000000002
MoP2O7,mp-26240,1.5250000000000001
CsRe3(S2Br)2,mp-683890,1.8417000000000001
LiCuF2,mp-753098,1.8448000000000002
KMg14AlO16,mp-1036563,1.8639000000000001
NaP7,mp-1195785,1.7429000000000001
TaFeO4,mp-39933,1.9147999999999996
TlIO4,mp-30032,1.9738000000000002
Cs2GeSe4,mp-1104024,1.6824000000000001
LiMnF4,mp-776117,1.8178999999999998
Ta2Mn2O7,mp-755851,1.9710999999999994
Li2FeO2F,mp-776471,1.6863000000000001
H10IrC2(ClO)3,mp-1195804,1.9822000000000002
ZnS,mp-555214,1.5972999999999997
Na9Ca4Nb2(PO4)9,mp-2715365,1.6481999999999999
SnO,mp-545552,1.6851000000000003
Li3P11(H3N)17,mp-722502,1.9667999999999999
MnAl2P2(H5O4)4,mp-1238482,1.5293999999999999
NaAlH4,mp-1102924,1.8723999999999998
SrMo(PO4)2,mp-1046415,1.8805999999999998
Rb2InGaCl6,mp-1114060,1.5777999999999999
Na3NbZnSi(PO6)2,mp-2715441,1.7450999999999999
Rb4Nb2S10O,mp-556467,1.5715999999999999
In(HO)3,mp-676855,1.9485999999999999
BH11AuC4IN2,mp-698289,1.9586999999999999
CaFe3Si2O9,mp-1238485,1.8425000000000002
Al3BC3,mp-1228599,1.8202999999999996
Li3Fe2(SiO4)2,mp-1177702,1.5291000000000001
NaFeP2(O3F)2,mp-1199438,1.8637000000000001
AuCN,mp-29196,1.8610000000000002
Ca4PdO6,mp-10299,1.8226999999999998
LiFeO2,mp-850511,1.6484999999999999
WO2F,mp-2675517,1.6483999999999999
NaFeO2,mp-21880,1.6367000000000003
Nb2O5,mp-10426,1.8452000000000002
SnF3,mp-1375229,1.8014000000000001
Na42Nb16Zn8Si33(SO48)3,mp-2714509,1.8129000000000002
Na15Nb5Zn7(PO4)18,mp-2713203,1.9909999999999999
Ga3Bi5Cl12,mp-29075,1.8012000000000001
LiMn2PO5,mp-776397,1.8299999999999996
K3GeSe3,mp-14435,1.8278999999999999
ZnS,mp-1202959,1.9924999999999997
K2FePCO7,mp-773453,1.8518000000000001
CsPbBr3,mp-600089,1.7819000000000003
LiMn2OF3,mp-861572,1.8355000000000001
CsTaPS6,mp-555592,1.5394999999999999
LiFe2(BO3)2,mp-760352,1.5430000000000001
Li2FeOF3,mp-780672,1.9802000000000002
CaFe6(OF2)4,mp-1233207,1.8131999999999997
Sr4BrN2Cl,mp-1218378,1.8938000000000001
Cs2NaAlH6,mp-989642,1.9337999999999997
LiMn(PO3)4,mp-31950,1.7367000000000001
Na3NbZnSi(PO6)2,mp-2715454,1.8679000000000001
Mg2TaFeO6,mp-1345547,1.9989999999999997
FeMoHSeO7,mp-1202896,1.6635999999999997
Na3TlO2,mp-29454,1.8471000000000002
Na8MgSi5Ge3SO24,mp-2715713,1.6106000000000003
CsCu3S2,mp-7786,1.6845999999999999
CsMg30WO32,mp-1039763,1.9441000000000006
MgP2W2O9,mp-1041003,1.8542000000000005
Na2S5,mp-28127,1.7772000000000001
Pb4SeBr6,mp-655489,1.9666000000000001
Li3CuS2,mp-753737,1.9809999999999999
Li2BiBO4,mp-768731,1.9028999999999998
K2Li14Pb3O14,mp-504806,1.9157000000000002
CsAuO2,mp-997024,1.5219000000000003
Zn2SnWO6,mp-1344130,1.5411000000000001
Fe4OF7,mp-753033,1.9472999999999998
AuCS2Cl3,mp-556112,1.8955000000000002
ZnSeO4,mp-754358,1.8188999999999997
LiInO2,mp-5488,1.8142999999999998
Nb2Tl5S4Br9,mp-558099,1.6588000000000003
C,mp-731594,1.6096000000000001
Na2Zn(SnS3)2,mp-1190487,1.7270999999999999
K6NaAu2IO8,mp-555392,1.8845999999999998
Tl2GePbS4,mp-653561,1.9188999999999998
Cs2AgAu,mp-1097285,1.9749999999999999
Ca3Fe2(WO6)2,mp-1275790,1.9666000000000001
LiFeOF2,mp-781596,1.7247999999999999
Ir2(Se3Br2)3,mp-1195597,1.5192999999999999
Li2CuPO4,mp-753179,1.9750000000000005
Bi2Pd(SeO3)4,mp-1201497,1.7711000000000001
Li10Fe(SiO5)2,mp-758900,1.8141000000000003
MgZn4(Se2O5)4,mp-1234141,1.7955999999999999
Ca3Ge3(MoO6)2,mp-1332615,1.8503000000000003
LiRhO2,mp-14115,1.5152999999999999
Ru(C4N3)2,mp-1246365,1.8155999999999999
Na2Nb3InSi4(SO12)2,mp-2715579,1.9359000000000002
Na3AuO3,mp-768915,1.8236999999999999
Al8(SiO6)3,mp-1247920,1.5203000000000007
LiMn2F7,mp-752545,1.5514000000000001
Ta2MnO6,mp-34475,1.6212999999999997
CaFeO2,mp-1079680,1.8059999999999996
Rb3RuF6,mp-1238967,1.8235000000000001
KNaNb2O6,mp-1223345,1.9820999999999998
Nb2FeO6,mp-22366,1.8229000000000002
Li5BiO4,mp-768986,1.6844999999999999
Li3Fe8(BO3)8,mp-764938,1.7381999999999997
Li6Mn2B4SO16,mp-831077,1.6433999999999997
CaSn(GeO3)2,mp-1043030,1.8707000000000003
WSCl4,mp-1205307,1.8864999999999998
S3N2,mp-1120742,1.9797999999999998
Na6Mg4Ta20Si21(S5O48)3,mp-2715797,1.8388999999999998
LiBi3(IO2)2,mp-775430,1.7551999999999999
Na3Nb8Zn4P15(SO24)3,mp-2716206,1.8815000000000002
C2S3I,mp-1214225,1.6642000000000001
MnH16C4S4(N4Cl)2,mp-1199490,1.6433999999999997
LiMg14BO15,mp-1035344,1.9504000000000001
Rb2MoO8,mp-1209701,1.9098000000000002
Ge2N2O,mp-1178193,1.8284999999999996
Na6In8Si3(S3O16)3,mp-2713837,1.6844000000000001
NaFeO2,mp-19359,1.9889000000000001
Pm2MgSe4,mp-1232215,1.5693000000000001
KS3,mp-1196514,1.8888999999999998
CsLiMg6O7,mp-1031024,1.8730000000000002
AlInSe3,mp-862787,1.6095999999999995
K6MgO4,mp-12171,1.6783000000000001
MnH8C2NCl3,mp-567451,1.6327000000000003
LiAgF2,mp-759658,1.5270000000000001
MoP2O7,mp-26616,1.9637000000000002
MgFe2(BiO3)2,mp-2217296,1.8739999999999997
Na4W(NO)2,mp-19125,1.9524000000000001
LiBi3O5,mp-768997,1.8414000000000001
Cs5Na(W2N5)2,mp-1203906,1.8500999999999999
Na2SnBPO7,mp-768592,1.8591999999999997
KMg14BO16,mp-1035582,1.8494000000000002
AuBr,mp-570140,1.9716000000000002
Na9Ca5Ta7Si9(SO8)9,mp-2714911,1.8861999999999999
TaNO,mp-4165,1.9337999999999997
MgO,mp-1245128,1.9477000000000002
LiMnF4,mp-780710,1.8393000000000002
Fe(C4N3)2,mp-1213124,1.5943000000000003
RbMnF4,mp-553981,1.7351999999999999
Mg21FeSi12(HO16)3,mp-695496,1.8410000000000002
Cs2InBiCl6,mp-1112889,1.7611999999999999
Zn3Fe2(GeO4)3,mp-1363943,1.9100000000000001
Sr2Tl2O5,mp-1218526,1.5206999999999997
LiMnO2,mp-2861076,1.9853999999999998
KGeAuS3,mp-554859,1.9973999999999998
Li3Fe2(PO4)3,mp-26825,1.9116000000000002
LiMn(PO3)3,mp-758612,1.9428999999999998
CsFeO2,mp-1201612,1.9751999999999998
Na18Ta16Zn8Si21(S5O48)3,mp-2712961,1.5977000000000001
SnO2,mp-1384340,1.8491999999999997
CaSi2WO6,mp-1041992,1.5758999999999999
Al2Ag2Bi2S3Cl8,mp-1194539,1.9031999999999998
NaTaSi3Ge3(SO8)3,mp-2713765,1.9780000000000002
Na15Ca7Nb5(PO4)18,mp-2713476,1.8972000000000002
Na21Ca8Nb4Si3(P5O24)3,mp-2715746,1.8322000000000003
Cs2Se,mp-1011695,1.7952000000000001
ZnS,mp-1200568,1.9998999999999998
MgSe2,mp-1103590,1.9684999999999997
Na3BP2,mp-29370,1.8450999999999997
CaFe2(SiO3)4,mp-1171010,1.8920999999999997
MgMn2(FeO2)4,mp-2232141,1.5497000000000005
B2Pb2S5,mp-662553,1.6623999999999999
Li2Fe7(OF2)4,mp-761205,1.6905999999999999
OsC3I2O3,mp-616196,1.7955999999999999
Li2AlFeO4,mp-772430,1.8799000000000001
H13RuC6SN4O8F9,mp-1203926,1.9684999999999997
KInCl3,mp-1112170,1.5970999999999997
Bi2O3,mp-684747,1.6863000000000001
Na14Ca2Si9Sn6(SO16)3,mp-2714635,1.6785000000000005
Na6ZnO4,mp-7664,1.5335999999999999
Zn2W3O8,mp-1378118,1.8086000000000002
IClOF,mp-558330,1.7840000000000003
LiMnBO3,mp-831163,1.9591999999999996
Na6MgSi4Sn3(SO12)2,mp-2714471,1.5613000000000001
Na9Nb2Zn4(PO4)9,mp-2715315,1.8943999999999999
KAuSe,mp-9881,1.8159999999999998
Na3Mg2(WO4)3,mp-1210564,1.9870999999999999
WS2,mp-1028441,1.6559000000000001
Sn2Ge2O7,mp-768877,1.5051000000000005
ThP2(NO4)2,mp-1217520,1.7288999999999999
Na2O,mp-776952,1.5089000000000001
InSnCl3,mp-1224255,1.8707999999999996
Na6Nb3Al5Si6(SO8)6,mp-2716557,1.5143999999999997
Li3Fe3(PO4)4,mp-25813,1.9196999999999997
CsPbI3,mp-1120768,1.6421000000000001
CaMg6FeO8,mp-1032929,1.9143999999999997
P4Se5,mp-2447,1.8240999999999998
InPb2I5,mp-23520,1.8572000000000006
BC6XeF11,mp-1195493,1.5918999999999999
Pb13(Cl3O5)2,mp-561236,1.8938000000000001
Li2Fe3P5O18,mp-759311,1.6179999999999999
Sr7Mn4O15,mp-1218641,1.5754000000000001
GaS,mp-9889,1.8664999999999998
ZnS,mp-1196782,1.9863999999999997
LiFe4(BO3)4,mp-761195,1.5777999999999999
NaNb(CuS2)2,mp-1189564,1.5916000000000001
BCl(OF2)2,mp-557856,1.6825999999999999
K2MoS3O,mp-1193903,1.9215999999999998
Na6Zn6SiSn2S11O48,mp-2712727,1.5652000000000001
NbZn2N3,mp-1029422,1.8500999999999999
Zn3H6C6(IO6)2,mp-1204276,1.5493000000000001
Li5CuF6,mp-760782,1.9852999999999996
CsPPbSe4,mp-1193277,1.5613000000000001
MgFe2(WO4)2,mp-2219948,1.7589999999999995
P,mp-568348,1.8454000000000002
LiMnF5,mp-764980,1.8277999999999999
Fe2S3(NO6)2,mp-1213033,1.7673999999999999
K2FeO4,mp-1178165,1.6197000000000001
K4Nb8Si(P2O17)2,mp-14873,1.8862999999999999
W3O8,mp-1404844,1.6161999999999999
FeHO2,mp-626088,1.7285000000000001
MgZn2Mo3O8,mp-2228177,1.5011999999999999
Nb3GaSi3(SO8)3,mp-2713840,1.7733999999999999
Na6Nb4Zn2Si6(SO12)3,mp-2712752,1.9189999999999998
Li3Fe2(SiO4)2,mp-758173,1.8961000000000001
Li3MnF6,mp-2913178,1.8519999999999999
Na2ReO3,mp-1210286,1.9954999999999994
Mg5AlH21O17,mp-677288,1.7189999999999999
RuS3Cl8,mp-29568,1.8601999999999999
Na4CaSi2GeSO12,mp-2714568,1.5690999999999997
Ca(MoO2)2,mp-1042245,1.8193000000000006
K6Se2O9,mp-559613,1.6318000000000001
CaNbP(SO6)2,mp-2712989,1.9806000000000001
Rb6Ta4S25,mp-680284,1.5575999999999999
SnBr2,mp-978985,1.6560000000000001
S2N2O,mp-504826,1.9159999999999997
Li2FeO2,mp-755094,1.7893000000000001
LiFeP2O7,mp-849452,1.7431999999999999
SnH5CN2Cl3,mp-2647030,1.7893000000000001
K2AgAu,mp-1097515,1.9995000000000003
Sr4Nb3PO14,mp-1249497,1.9159999999999995
Li2Mn(BO3)2,mp-776779,1.7429999999999999
K4Ta3NbO12,mp-1223769,1.9359999999999997
Zn2Fe2O5,mp-1377137,1.8501999999999998
KNaNb2O6,mp-1223364,1.9820999999999998
LiBi3(IO2)2,mp-1222461,1.8667999999999996
Bi3O4F,mp-757162,1.7972000000000001
HIO4,mp-1224433,1.5333999999999999
In2Si2O7,mp-19784,1.8098999999999998
Li5Fe8(BO3)8,mp-774994,1.6197000000000001
Li15Fe15SiO32,mp-1178074,1.9057999999999997
CaGa4(WO6)2,mp-1233372,1.8756999999999997
NaNbSi3Ge3(SO8)3,mp-2713842,1.7854999999999999
Na3IO,mp-769398,1.8167999999999997
Fe2H14C8NO12,mp-1194812,1.6743000000000001
In3SnI5,mp-568522,1.8894000000000002
Li4Fe2O5,mp-770893,1.6407000000000003
K2Fe2P2O7F2,mp-651601,1.9967000000000001
Rb17Fe5O16,mp-768716,1.8477999999999999
NaTaZnSi(SO6)2,mp-2712612,1.7409999999999999
Na2NbAl3P4(SO12)2,mp-2712780,1.9490000000000003
K2RbAlI6,mp-1111610,1.9161000000000001
LiNbFeO4,mp-756415,1.8378999999999999
TaCu3(SeS)2,mp-1218032,1.7547000000000001
TaIn3Se4,mp-1120727,1.8217999999999996
PICl8,mp-573373,1.6867999999999999
CuBS2,mp-12954,1.7424999999999997
K5Au(IO)2,mp-558332,1.8820000000000001
Sr2Ca49Mo12N56O3,mp-1209837,1.9009999999999998
Ag4Mo2Se3O16,mp-558550,1.6559000000000001
K5FeO4,mp-12040,1.7025000000000001
GaAg(PSe3)2,mp-654129,1.5032999999999999
K3ReClF6,mp-557125,1.8139999999999998
TaZn2FeO6,mp-1340585,1.6745999999999999
Rb2TlRhF6,mp-1113861,1.9393000000000002
Mg30ZnSnO32,mp-1037374,1.8329999999999993
Ca7SiN6,mp-1029474,1.8302999999999998
Na3Nb7P4O29,mp-1221330,1.8573999999999997
LiFeSiO4,mp-759064,1.7913999999999999
Mn2Al2O7,mp-1255912,1.5857999999999999
MgH20C4Br2(N4O3)2,mp-703426,1.5996000000000001
Na2Al4Ga4SiS11O48,mp-2714255,1.8960999999999997
Fe4OF7,mp-764745,1.8525999999999998
Li3CuS2,mp-753741,1.9031000000000002
Ag3H13SeN4O5,mp-695941,1.9348999999999998