pretty_formula,material_id,band_gap
Li4Nb2Fe3O10,mp-769502,1.8552999999999997
Zn3InAgS5,mp-1215730,1.9246999999999996
CsMnF4,mp-554411,1.9524000000000001
ZnFe3P3O13,mp-1047809,1.9318999999999997
SrAu2(SO4)4,mp-1197529,1.6783000000000001
RbLiMg14O15,mp-1035407,1.9352999999999998
OsO3F2,mp-28845,1.9129999999999998
Na4Br2O,mp-28599,1.9830999999999999
FeO,mp-1274279,1.8157000000000005
MgBi4(WO6)2,mp-2231229,1.8804999999999996
NaFe2(PO4)2,mp-1210447,1.8351000000000002
ICl,mp-567998,1.8521999999999998
TaBi3O7,mp-37030,1.9574999999999996
K5Na3Ta7NbO24,mp-1076413,1.9600000000000002
ZnGe(SO4)3,mp-2713873,1.5473000000000001