pretty_formula,material_id,band_gap
Sr4SnPbO8,mp-1208734,1.8592999999999997
K4CO4,mp-545630,1.9637000000000002
MgFe3(PO4)3,mp-2231540,1.8437000000000001
CuP4S3Br,mp-1196166,1.9334999999999996
MoH12C2(S2N)2,mp-1205118,1.8155000000000001
SrCa3(PbO4)2,mp-1218448,1.9231000000000003
Ca2AlMoO5,mp-1046989,1.6287000000000003
Rb2CuBr3,mp-569531,1.8371000000000002
LiCuCO3,mp-760512,1.8723999999999998
LiNbO2,mp-3924,1.5794999999999995
Fe6OF11,mp-755836,1.8601999999999999
KCBr(NO2)2,mp-558178,1.9626000000000001
TlGeI3,mp-29288,1.9161000000000001
CaFe6(OF2)4,mp-1234276,1.6723000000000001
K3Na2InO4,mp-553975,1.9064999999999999
SiC,mp-624397,1.9959999999999987
Cs2Se,mp-1011696,1.8026999999999997
NaGeN,mp-1246750,1.5042999999999997
Cs2RbTlBr6,mp-1112116,1.5132999999999999
NaSr6H17Pd2O17,mp-1221694,1.5143999999999997
Na6Ta20Zn4Si21(S5O48)3,mp-2715737,1.9349999999999998
SiC,mp-1204356,1.8389000000000006
GaHO2,mp-625628,1.6097999999999995
Na6In4Si3(SO8)3,mp-2716126,1.9002999999999997
MnCl2,mp-28233,1.7925999999999997
AgH12C4S5N,mp-698405,1.7469999999999999
LiAu(S2O7)2,mp-1105750,1.9832999999999998
Fe7(SiO4)4,mp-1197365,1.9259999999999997
MgO,mp-1245039,1.9229000000000003
SrZnP2WO8,mp-1046576,1.9573999999999998
Na2Nb6Ga2Si7S5O48,mp-2715594,1.9310999999999998
Na3GeSe3,mp-18411,1.8880999999999997
Mn3Nb2ZnO9,mp-557349,1.9057999999999997
MnBiO3,mp-1194603,1.9010999999999996
Mg6ZnFeO8,mp-1032625,1.8576999999999995
Na4Mn3BO8,mp-1221176,1.8668999999999998
Zn2Si5N8,mp-1247426,1.9910999999999994
Na4Zn3GeP2(SO6)4,mp-2713189,1.8390000000000002
Ag2WO4,mp-637188,1.9382000000000001
FeH16C4S4(N4Cl)2,mp-723036,1.9676999999999998
Mg(FeO2)2,mp-1386508,1.7678000000000003
SrSnO3,mp-12866,1.6118000000000001
FeH4S2NO8,mp-684724,1.9115999999999997
K6ZnS4,mp-1147618,1.9713999999999998
Fe4H14O13,mp-626855,1.8694000000000002
InRe2(CO)9,mp-1196269,1.9165999999999999
Na8Al6Si6O25,mp-1173749,1.8672999999999997
Na2O,mp-1974948,1.6260000000000001
Li3Fe(PO4)2,mp-757629,1.9917999999999996
Bi2O3,mp-37036,1.6863000000000001
SnS2,mp-1002063,1.8647999999999998
Na3P11,mp-473,1.8326000000000002
AgN3,mp-571297,1.6314999999999997
Ag2H6PdS2(NO3)2,mp-1202149,1.8948999999999998
Li3Fe8(BO3)8,mp-759585,1.6965000000000001
MgFe4O5F3,mp-2219422,1.8706999999999998
Sn2SI2,mp-23386,1.6146000000000003
LiFeP2O7,mp-26613,1.9077000000000002
Li2Fe5Si5O16,mp-767707,1.8341000000000003
P4W3O14,mp-1041213,1.6078999999999999
RbInSe2,mp-31309,1.6461999999999999
Rb2NbCuSe4,mp-15222,1.6393999999999997
Na2Fe2F7,mp-1203434,1.6825999999999999
KZnBr3O2,mp-1193013,1.8994999999999997
MgSn2WO6,mp-1519158,1.9783999999999997
Ca10Al6Si13N30,mp-695592,1.8136999999999999
SeN,mp-542635,1.8778000000000001
Ca(FeO2)2,mp-1048853,1.6461000000000001
CCl3,mp-1227457,1.9836999999999998
P(H2I)2,mp-1210218,1.6383999999999999
Rb2AgBiBr6,mp-1110811,1.5819999999999999
LiTa3O8,mp-851102,1.9077000000000002
Cs4CO4,mp-605824,1.7003000000000001
Na3CaSn(PO4)3,mp-2715509,1.9156999999999997
Zn(BiO2)2,mp-1042270,1.7048999999999999
Mg4CN4,mp-1245729,1.9104999999999999
RbAg4I5,mp-676813,1.7041999999999997
Na6Ca3GeP4(SO12)2,mp-2712706,1.9257999999999997
MgFe4(PO4)4,mp-1233870,1.8214000000000001
Na2SO5,mp-1190448,1.5857999999999999
Sr3Ca(SnO3)4,mp-1218522,1.8808999999999996
NaCaNbP2SO12,mp-2712763,1.8247000000000002
Ge3N4,mp-571281,1.6238000000000001
IrCl3,mp-729507,1.6759999999999997
KMg14WO16,mp-1035887,1.6604999999999999
LiMn2OF3,mp-759613,1.8555000000000001
H12PdC2(N3Cl2)2,mp-1198297,1.7471999999999999
Zn(GaS2)2,mp-34467,1.8921999999999999
B6O,mp-1346,1.8563999999999998
Li3H3N2,mp-977164,1.7457000000000003
MgFe4(OF)4,mp-2218371,1.5050000000000001
Na15Mg7Ta5Si9(SO8)9,mp-2716569,1.9060000000000001
GaHO2,mp-673411,1.9492000000000003
Na6Ta2Al6Si5S7O48,mp-2716095,1.8483999999999998
Fe4OF7,mp-755914,1.6444999999999999
CsPSe6,mp-1194666,1.7032000000000003
NaNbSi3Sn3(SO8)3,mp-2713975,1.6403999999999999
SiSe2,mp-1179443,1.8981000000000001
NaCaH3,mp-1078750,1.9793999999999998
LiGa(GeSe3)2,mp-1222398,1.5103999999999997
Mn(H15N8)2,mp-1195097,1.9112999999999998
SrFeMoO5,mp-690817,1.8071000000000002
Li5BiS4,mp-757150,1.5608999999999997
Na7Mg2SiGe2P5O24,mp-2715692,1.5531000000000001
LiFe4(BO3)4,mp-849952,1.8531000000000002
RbNa5(WN3)2,mp-571412,1.8417999999999999
BrCl,mp-1066781,1.8319999999999999
Na3SiSe4,mp-28303,1.7548000000000001
GaP,mp-2490,1.6038999999999999
Ca8Al3(FeO4)5,mp-1227241,1.8679999999999994
Na7Mg3Nb(PO4)6,mp-2714101,1.6582000000000001
Na10Zn6Si3Ge2(S3O16)3,mp-2714903,1.8349999999999997
NaB6S4(Br3O4)2,mp-1196084,1.7688000000000001
Fe4OF8,mp-754705,1.7812000000000001
Li4MnFe2(BO3)4,mp-766479,1.6559000000000001
Re3S4Cl,mp-653579,1.5657999999999999
Al2W2O7,mp-1342803,1.8038999999999996
K2ZnO2,mp-8187,1.9785000000000001
Na2MgW4O13,mp-2230091,1.8534000000000002
P3NCl12,mp-569386,1.7954999999999999
Li9Fe3(OF7)2,mp-780155,1.8077999999999999
Na5In2SiGe2P5O24,mp-2715936,1.9962999999999997
ZnBi2(PO5)2,mp-1043490,1.9081000000000001
NaIn2Ga2PS5O24,mp-2714275,1.9042000000000001
MgGe4(MoO6)2,mp-2231396,1.8405000000000002
MgFe2P2(HO)18,mp-24752,1.9284000000000001
ZnS,mp-1202182,1.9929999999999999
MgFe4(OF)4,mp-2218410,1.7758000000000003
Os4C13(SO6)2,mp-662796,1.8984999999999999
K3AgO2,mp-572510,1.8095999999999999
CaC2,mp-1009653,1.7072000000000003
Na3Zn2(WO4)3,mp-1210410,1.8464999999999998
FeBiO3,mp-551451,1.6259000000000001
Na3InSi3Sn3(SO8)3,mp-2716373,1.8475000000000001
ZnS,mp-582680,1.9845000000000002
MgAl6O10,mp-532405,1.9142000000000001
Na2Mg2Fe2Se3(SO8)3,mp-1221456,1.8222999999999998
Li2Mn(PO3)5,mp-705355,1.5914000000000001
Li5MnO3F,mp-759909,1.8801999999999999
CsPS3,mp-504838,1.9062000000000001
Al2Zn2S5,mp-1096793,1.5385999999999997
Fe4P3(HO5)3,mp-24470,1.6644999999999999
Li2SiSnS4,mp-1021497,1.9189000000000003
S2Xe(O3F)2,mp-1194972,1.9407999999999999
Na8Ca2Nb2Si5SO24,mp-2716171,1.8602999999999998
Na2Fe3(PO4)3,mp-1195335,1.6381000000000001
Sr12Al14O33,mp-1094063,1.5899999999999999
Ta2Tl3Cu3S8,mp-554994,1.8183000000000002
NaSr4(BN2)3,mp-10811,1.9666000000000001
GaCuI4,mp-29403,1.6966999999999999
CS5N5O3F,mp-558959,1.8838000000000001
Si2AgN3,mp-1247312,1.8527999999999993
Li3BiS3,mp-753444,1.9787000000000001
AgIO3,mp-1202188,1.8068999999999997
Li2CuAg,mp-1096285,1.8348999999999998
Na7Ca3GeP5SO24,mp-2715880,1.7351999999999999
MgMnZn2WO6,mp-2217882,1.5204999999999997
Cs3P11(H3N)3,mp-1204998,1.9621000000000002
Na3MnO4,mp-1210340,1.8460999999999999
Na2LiRhF6,mp-1114234,1.8437999999999999
Ge3N4,mp-13852,1.9025999999999996
Li5Cu(PO4)2,mp-780392,1.8461999999999996
SiC,mp-570690,1.6644000000000005
Rb2CuCl3,mp-640053,1.9854000000000003
Fe2OF3,mp-777541,1.6320000000000001
Sn2OF5,mp-29590,1.9107999999999998
Al3Bi5Cl12,mp-646102,1.8215999999999999
SrCaNb4O12,mp-1519971,1.6939999999999997
KZnCl3O2,mp-732165,1.8266999999999998
Sr3BCNCl2,mp-616577,1.8787999999999996
C15S4,mp-28709,1.5194999999999999
KCNO,mp-1223461,1.9770999999999999
KFe3H6(SO7)2,mp-1192851,1.8639000000000001
Ca(IO2)2,mp-725059,1.5878999999999999
IF7,mp-1184928,1.8027000000000002
Na2MgW4O13,mp-2230112,1.8534000000000002
Al2PbSe4,mp-675374,1.9961000000000002
Ge(PbS2)2,mp-531296,1.9788000000000001
Mg30MnSiO32,mp-1038035,1.9764999999999997
LiCu(PO3)2,mp-25975,1.8046000000000002
H4I3N,mp-28281,1.8563999999999998
Rb2PdN2(ClO2)2,mp-554602,1.5977000000000001
Ag2MoO4,mp-19318,1.8730999999999998
H12Pd(N5O4)2,mp-557991,1.8437999999999999
Na3CaSn(PO4)3,mp-2715243,1.9934999999999998
MnO2,mp-1272141,1.9395000000000002
Cs3K5Mo8(P2O11)4,mp-1227037,1.9145999999999999
NaFeBO3,mp-1101655,1.9134000000000002
NbFeO4,mp-37509,1.8479999999999994
Na5MgBiO5,mp-2218244,1.7321999999999997
KMg14GaO16,mp-1035614,1.8608000000000002
Rb2Li14Pb3O14,mp-504810,1.9342000000000001
MgFe2Si2BiO9,mp-2232393,1.8030999999999997
SrLiH3,mp-24419,1.8195000000000001
Li2SnN2,mp-1029385,1.6966999999999999
Ca2MoWO6,mp-1047241,1.9254000000000007
Rb4CO4,mp-551176,1.6454999999999997
CuH2CS2N,mp-1192713,1.7084000000000001
Mn2SiO4,mp-18928,1.9884999999999997
Na8ZnSi4Ge3(PO12)2,mp-2715549,1.9716999999999998
Tl2CS3,mp-2679737,1.9240999999999997
SrMg2FeH8,mp-643004,1.7242999999999997
Li8MnO6,mp-755817,1.5049000000000001
NClO,mp-505727,1.9800000000000002
Bi3C3N7,mp-1246589,1.9464000000000001
Li3AuO3,mp-7471,1.8710999999999998
Si2H2O3,mp-626977,1.9921000000000002
Bi12PbO20,mp-667342,1.6917999999999997
BiF5,mp-27743,1.8137999999999999
TaTl2AgS4,mp-558241,1.9436999999999998
BiPbIO2,mp-1227389,1.7164000000000001
Na6Ta4Zn4Si5S7O48,mp-2716067,1.6322999999999999
Rb2Sn4S9,mp-1220891,1.6863000000000001
Ca(BiO2)2,mp-1046875,1.7875999999999999
SiC,mp-570804,1.8432999999999993
Mg(FeO2)4,mp-2219269,1.5096000000000003
MnH8(N2Cl)2,mp-696616,1.9062999999999999
Li3Sn2(PO4)3,mp-757899,1.9351999999999996
ZnSn2P2O9,mp-1040851,1.5387999999999997
LiMnH8(SO6)2,mp-1176694,1.6219000000000001
CaPSe3,mp-11007,1.9014000000000002
Si9C4NO18,mp-727207,1.8774000000000002
Na3CuO2,mp-778612,1.5675000000000001
MnBr2,mp-569843,1.5293999999999999
K4Ta2S11,mp-4361,1.6604999999999999
CsCu2Cl3,mp-23065,1.8298999999999999
ZnGe2WO6,mp-1043302,1.8991999999999998
S4N5Cl,mp-606912,1.8899000000000001
Sr4IBrN2,mp-1218563,1.8079999999999998
Cs2PdCl4,mp-30314,1.8519999999999999
BiSeCl,mp-610491,1.8404000000000003
KRb2MnF6,mp-1205717,1.7046999999999999
FeH4Cl5O,mp-1213458,1.8829000000000002
IO3,mp-23315,1.9182000000000001
MoS2,mp-1023924,1.6605999999999999
Na2Pd(S4O13)2,mp-1195013,1.5455999999999999
TaCu3S4,mp-10748,1.9231000000000003
ReCl3O2,mp-607436,1.8620999999999999
ClO,mp-1213922,1.6924000000000001
CsAu(IO3)4,mp-1200560,1.9344999999999999
FeO,mp-1181437,1.8860999999999999
Na10Mg3Ge5(PO4)12,mp-2713199,1.9979000000000002
Sr2LiReN4,mp-10556,1.8098999999999998
Na4Ca2In2SiS5O24,mp-2713130,1.8367999999999998
K2Nb4Fe2O13,mp-17508,1.8139999999999998
Na6Ca2Nb4Si6(SO12)3,mp-2712758,1.9367999999999999
Fe3H9S2O15,mp-1224975,1.9552999999999998
Os6C19SO19,mp-662802,1.7147000000000001
Na2O,mp-2352,1.8736000000000002
NaNbO3,mp-4748,1.8237999999999999
Ca5(GeN3)2,mp-1247566,1.9765999999999995
LiFePHO5,mp-705884,1.9284999999999999
Li3FeSiO5,mp-772106,1.8956999999999997
KMg14BO15,mp-1035836,1.6036000000000001
Li6Fe5WO12,mp-1176996,1.8343000000000003
TlBr3,mp-731800,1.9391999999999998
SrMg14MnO16,mp-1036160,1.8978000000000002
CaFeSeO,mp-1104614,1.9171999999999998
Li2MnPCO7,mp-1177908,1.9910999999999999
Mg3WN4,mp-1030015,1.9534000000000002
Li3MnF6,mp-760028,1.7228999999999999
Rb2AlTlI6,mp-1114117,1.8325999999999998
Rb3NaMg(MoO4)2,mp-2232370,1.5615999999999999
SiSe2,mp-568313,1.8488000000000002
LiH2BrO5,mp-695992,1.8113000000000001
K2H2IrCl5O,mp-23801,1.8583000000000003
AlP,mp-8880,1.9532999999999996
Na2LiTlCl6,mp-1111474,1.6282999999999999
Mo6NO18,mp-1221507,1.8247000000000002
Nb3Al(PO4)6,mp-2713950,1.8040999999999998
Li2PWO4F,mp-25399,1.9727999999999999
C2Se3N2,mp-542699,1.9919000000000002
Tl4SiSe4,mp-28334,1.5277000000000003
Na21Ca4Nb8Si15(PO24)3,mp-2714458,1.9812999999999998
CuMo3I7,mp-29440,1.5653000000000001
Na3CaFe4(SiO3)8,mp-1252316,1.8098999999999998
SrReN3,mp-989623,1.9969000000000001
PbS,mp-727323,1.6540000000000001
Li2S,mp-32899,1.8753999999999997
NaInO2,mp-5175,1.9142000000000001
GeI2,mp-567677,1.9649999999999999
Ta4Mn2Zn3O16,mp-1378479,1.5191000000000001
K2S5,mp-17146,1.9298999999999997
K2Nb6Ag(PO8)3,mp-686747,1.6358000000000001
Li3FeO3,mp-771894,1.9077000000000002
SnCNCl3,mp-724678,1.6622000000000001
Ga2O3,mp-1244932,1.8296000000000001
NbFe(PbO3)2,mp-1220306,1.8713000000000006
NaMo3H29C8(BrO2)4,mp-1198806,1.8283999999999998
Na2Fe2F7,mp-1210473,1.6825999999999999
Th2N2O,mp-1206128,1.9719000000000007
Li5CuF6,mp-758720,1.5709999999999997
LiFe4(BO3)4,mp-849690,1.9494000000000002
Li3Fe4(OF3)3,mp-754277,1.9361000000000002
LiCuSi2O5,mp-756392,1.9425999999999997
Nb15MoO40F,mp-557934,1.8059999999999998
LiFe2(CO3)3,mp-1176763,1.5253999999999999
H3PbCI3NF3,mp-977011,1.8542999999999998
RbAu3Se2,mp-9385,1.7326000000000001
Li3Fe(PO4)2,mp-26773,1.9049999999999998
LiFe4(BO3)4,mp-882582,1.7819000000000003
P4Se3I2,mp-653559,1.7165000000000001
Na6Ca4Ta20Si21(S5O48)3,mp-2715644,1.8781999999999999
FeHO2,mp-1182700,1.5857999999999999
Li3FeSiO5,mp-752472,1.8987000000000003
Mn3Ga2(GeO4)3,mp-1211638,1.8660999999999999
Li3Fe4(BO3)4,mp-759239,1.5781000000000003
NaMgNbP2SO12,mp-2712591,1.9978999999999998
Li3Fe2(PO4)3,mp-758962,1.8979000000000001
Li3Fe9O5F11,mp-849473,1.9446999999999999
Fe3H9S2O15,mp-1224911,1.9904000000000002
Li3MnAl2O6,mp-770686,1.9170999999999998
Tl6Si2O7,mp-27228,1.5876000000000001
Na2FeH4(SO5)2,mp-1195527,1.8480999999999999
K2AlTlI6,mp-1111199,1.5653000000000001
Li2Fe3WO8,mp-1177969,1.6318000000000001
Na15Ca7Ta5Si9(SO8)9,mp-2713147,1.9982999999999997
Na6Nb4Zn2Si3(PO6)6,mp-2712666,1.9031999999999998
Na3ZnGe(PO4)3,mp-2715352,1.7409000000000001
KP2AuS7,mp-976587,1.5496999999999999
Mn4P2O9,mp-770499,1.9584000000000001
SnO2,mp-1401382,1.8946999999999998
Ca(SnO2)2,mp-1041556,1.6598999999999995
Zn2GeO4,mp-5909,1.9751999999999998
NbInSi(SO6)2,mp-2713193,1.8039999999999998
Ga2SiGe2S5O24,mp-2713118,1.8950999999999998
ReP(Cl2O)3,mp-572794,1.8656000000000001
NaTa3Zn(PO4)6,mp-2713983,1.8389000000000002
NaAu(S2O7)2,mp-1198003,1.7894999999999999
Rb2Na3InO4,mp-504851,1.9079000000000002
MoH4O5,mp-728527,1.7510000000000001
RbGeBiS4,mp-559227,1.8886999999999998
Na2H(CO2)2,mp-1210505,1.8264000000000002
CaMnO2,mp-1004037,1.8197999999999999
Li2Mo(PO4)2,mp-704197,1.6945999999999999
MnTlCl3,mp-570300,1.9323000000000001
MoP2O7,mp-25250,1.9978999999999998
CaP4WO12,mp-1045855,1.9125999999999999
LiAl(H2N)4,mp-695962,1.6440000000000001
Sr17(Ta5S21)2,mp-531358,1.8116999999999999
CaSnS3,mp-1100375,1.7350999999999999
H36Pb3C10(I5N2)2,mp-1194995,1.7045000000000001
Cs2PbO2,mp-562263,1.8593000000000002
Ca4SnS6,mp-866871,1.8131999999999997
RbCuC2,mp-5425,1.9542000000000002
LiFeCO3F2,mp-766495,1.7006000000000001
TaAgN2,mp-1246632,1.9407999999999999
Rb2LiRhCl6,mp-1206187,1.6499000000000001
RbNaO,mp-8453,1.9855999999999998
Mg(SiB6)2,mp-567224,1.9315000000000007
MgMnO3,mp-770618,1.5712999999999995
K3SnSe3,mp-541875,1.6275999999999997
Rb8Mg(FeO4)2,mp-2230085,1.8542999999999998
Rb2S5,mp-16911,1.9539000000000002
Ca2BiWO6,mp-1375332,1.8101000000000003
Mg(FeO2)2,mp-34493,1.5154000000000005
Rb3NpH4O7,mp-1200179,1.5110999999999999
BiXeF9,mp-555132,1.9598000000000002
B2(CN2)3,mp-1096872,1.8804999999999998
LiFeB2O5,mp-776600,1.6521000000000001
Na6Mg3Si2Sn(SO6)4,mp-2712579,1.8509000000000002
CsLiMg30O31,mp-1040267,1.8437000000000001
AgI,mp-1182980,1.8796999999999997
Li2FeBO4,mp-770663,1.9172000000000002
CaPbI6,mp-771814,1.8245999999999998
Al2O3,mp-1245323,1.7056999999999993
Li2WS4,mp-753195,1.9870999999999999
PPbSe3,mp-20316,1.6644999999999999
AlSeBr3N,mp-567060,1.8780999999999999
Sr2MnWO6,mp-19315,1.8985999999999996
KNb5Pb2O15,mp-1223583,1.9074999999999998
Li2FeP2HO8,mp-766101,1.9142000000000001
Ag2Mo(I2O7)2,mp-1203404,1.9610999999999996
CsK2RuF6,mp-1112313,1.6600000000000001
Na2InGaF6,mp-1111022,1.8618999999999999
Zn3PBr3,mp-1215629,1.6198000000000001
Na14Zn2Si9Ge6(SO16)3,mp-2714860,1.8093999999999997
Sr3InRhO6,mp-669389,1.5007000000000001
Cs6Br4O,mp-1178399,1.8137999999999999
CaMg2N2,mp-5795,1.9968999999999997
SiC,mp-568735,1.9979999999999993
K3Ta2Cu3Se8,mp-1200105,1.9869999999999999
ZnS,mp-555666,1.8580999999999999
Na8MgSi5Sn3SO24,mp-2716197,1.5768999999999997
Li3Al2FeO6,mp-770589,1.8725999999999998
Mg2BiWO6,mp-1343439,1.9292999999999996
Mg3Mo2O7,mp-1368730,1.8353000000000002
RbCu2I3,mp-1103650,1.9946000000000002
LiMnBO3,mp-768474,1.9348999999999998
Rb4CO4,mp-550314,1.7389999999999999
AlPO4,mp-685291,1.5065999999999997
Re2H4O9,mp-625142,1.9464000000000001
CsSi,mp-1370,1.5634000000000001
Na2Ta5In3Si6(SO8)6,mp-2713750,1.9667000000000001
Na2MgGeP2SO12,mp-2713620,1.6240999999999999
FeBiO3,mp-22949,1.7783000000000007
SrMg6FeO8,mp-1032435,1.6543999999999999
H14RhC6NClO4,mp-561074,1.7483999999999997
CsBSe3,mp-573358,1.7167000000000001
LiFe2C2O7,mp-757949,1.5354999999999999
Li2FeO2F,mp-780532,1.9398000000000002
KH2I3O,mp-696649,1.9079000000000002
PbF4,mp-341,1.9022000000000001
MgGe2(WO4)2,mp-2218480,1.7934999999999999
CaGa4(WO6)2,mp-1233056,1.9592999999999998
LiPWO5,mp-757577,1.9652000000000003
Pb4SeBr6,mp-630927,1.9783999999999997
Na3FeBPO7,mp-756274,1.8913999999999997
Na21Mg8Nb4Si3(P5O24)3,mp-2715629,1.5420000000000003
S2N,mp-2565,1.6967999999999999
H6PdC2(SO3)2,mp-1197675,1.5615999999999999
RbI3,mp-28328,1.8744999999999998
Cs7NaSi8,mp-1199908,1.5773000000000001
MnBr2,mp-571084,1.5333999999999999
ZnS,mp-608468,1.9701000000000002
Li6Fe3Sn(PO4)6,mp-778734,1.6764000000000001
Li2Bi2(SO4)3,mp-777356,1.8644000000000003
K4ZnO3,mp-28382,1.6945999999999999
Na7Zn2SiSn2P5O24,mp-2715660,1.9837000000000002
Cs2Se,mp-1080271,1.6602999999999999
Na4Sn(GeS3)2,mp-1221151,1.8872999999999998
NaGa3Se5,mp-570622,1.9412999999999998
Fe4(PO4)3,mp-31780,1.5798999999999999
K3NaRe2O9,mp-541393,1.8230999999999997
CaMg14MnO16,mp-1036433,1.6882000000000001
LiMnF4,mp-752874,1.8336000000000001
LiFe2(BO3)2,mp-758691,1.5273999999999999
Si4MoO10,mp-1043698,1.5668999999999997
TcBi3O8,mp-554435,1.9795000000000003
K2B6H5NO2,mp-722910,1.7669000000000001
K2FeH4(SO5)2,mp-644324,1.9558000000000002
LiP4WO12,mp-758467,1.5051999999999999
Fe2NF6,mp-1198504,1.8135000000000001
Fe8H10O17,mp-1182260,1.5656999999999999
Ca3In2O6,mp-757442,1.9618000000000002
K2O,mp-998929,1.8533999999999997
C2S3,mp-1214152,1.8807999999999998
LiCuCO3,mp-757800,1.5920000000000005
Li5TlO4,mp-27483,1.6600000000000001
MgH2,mp-23712,1.9527999999999999
Nb4Zn2Si3(SO6)6,mp-2713435,1.8717000000000001
MgFe6O7F5,mp-2230041,1.6016000000000001
NaH9Rh2C5O12,mp-1201841,1.7058999999999997
Zn4B2O7,mp-686042,1.8634000000000002
MoO3,mp-715584,1.9098000000000002
TaP4S4Cl5,mp-555967,1.8505000000000003
Mo2P2O11,mp-504196,1.8518999999999999
ZnSn(GeO3)2,mp-1042955,1.9382000000000001
Ag2Pd(NO2)4,mp-1195817,1.8403999999999998
NaMnPO4,mp-775855,1.8966000000000003
PNO3,mp-726260,1.7651999999999999
CsK2PdF5,mp-8959,1.8660999999999999
RbPSe6,mp-17945,1.8607999999999998
BiSI,mp-23514,1.8668999999999998
Na4Mn2P2O7F6,mp-1201699,1.5857999999999999
LiMn2F7,mp-759527,1.5734000000000001
LiMnH2OF4,mp-1197533,1.9510999999999998
CsMnO4,mp-18994,1.8635000000000002
Zn(GaS2)2,mp-1078049,1.9330000000000003
LiFeP2O7,mp-758762,1.9002999999999999
CsMnH24(SO10)2,mp-729644,1.8193000000000001
FeAg3F6,mp-1205948,1.7972000000000001
CaFe3P3O13,mp-560784,1.6386000000000003
H2W2O7,mp-625525,1.7048999999999999
Mo2H12C4N2O15,mp-1181609,1.9879000000000002
Mg3Si4(SnO7)2,mp-1248487,1.5512999999999995
CsRbMg14O15,mp-1099231,1.9776000000000002
Mn2Fe5(SiO3)8,mp-1210841,1.8955000000000002
K2InP2S7,mp-862780,1.8783999999999998
K2SnCl4O,mp-726672,1.6239999999999999
Li3Fe8(BO3)8,mp-1177659,1.8065999999999998
MgFe4O5F3,mp-2219511,1.8584999999999998
LiFe2OF5,mp-776544,1.7573999999999999
Li5MnP2(O4F)2,mp-758807,1.6278000000000001
MnH16C4N(OF2)2,mp-727111,1.9584000000000001
Na14Mg2Si9Sn6(SO16)3,mp-2714787,1.9466999999999994
SiH8C4F3,mp-1219313,1.9755000000000003
CaFe3P3H2O13,mp-1197792,1.6496999999999997
RhCl3,mp-27770,1.5211999999999999
ZnH12(NO3)2,mp-1207751,1.9172999999999998
LiFeOF2,mp-779787,1.8972000000000002
K5Th(PS4)3,mp-628680,1.9759999999999998
Tl2GeS3,mp-7277,1.7699000000000003
Li3Fe(PO4)2,mp-760008,1.8955999999999997
Tl4SiS4,mp-8479,1.9544999999999995
NaLiZnS2,mp-1220972,1.8297999999999999
K2CuBr3,mp-571440,1.9017999999999997
Na9Mg11Ta(SO4)18,mp-2715156,1.8429000000000002
NaNbZnP2SO12,mp-2712539,1.8827000000000003
MgFe2O3,mp-1275227,1.9969000000000001
CsPb2I5,mp-1238789,1.9628999999999999
Sr3MoN4,mp-570046,1.7734000000000005
CuMo3Cl7,mp-568397,1.9195000000000002
NaMg6BO8,mp-1030755,1.8747999999999996
BiF5,mp-1881158,1.7609000000000001
NaGaSiGe(SO6)2,mp-2712713,1.8034999999999999
Ag6Mo10O33,mp-1205440,1.8778000000000001
MgFe4(PO4)4,mp-1234984,1.9779000000000002
LiMo2P2O9,mp-1012668,1.5289000000000001
Na7CaNb3(SiO4)6,mp-2712957,1.9284999999999999
Fe2P2H4NO8,mp-1182833,1.8033000000000001
NbAgN2,mp-1245369,1.6891000000000003
LiFe(PO3)4,mp-26126,1.8014000000000001
Mg3Fe2O5,mp-753595,1.9340000000000002
Na8CaSi5Ge3SO24,mp-2716272,1.6863000000000001
LiFe4(BO3)4,mp-761212,1.5152999999999999
Li2O2,mp-841,1.9742999999999997
GeH10Se3N4,mp-1205224,1.5414999999999999